REMARK  Name = 
REMARK  15 active torsions:
REMARK  status: ('A' for Active; 'I' for Inactive)
REMARK    1  A    between atoms: C1_1  and  C2_2
REMARK    2  A    between atoms: C5_8  and  O3_9
REMARK    3  A    between atoms: O3_9  and  C6_10
REMARK    4  A    between atoms: N1_12  and  C7_13
REMARK    5  A    between atoms: C7_13  and  C8_14
REMARK    6  A    between atoms: C7_13  and  C15_21
REMARK    7  A    between atoms: C8_14  and  C9_15
REMARK    8  A    between atoms: C15_21  and  O5_22
REMARK    9  A    between atoms: C15_21  and  C16_23
REMARK   10  A    between atoms: C16_23  and  N2_24
REMARK   11  A    between atoms: C25_33  and  C26_34
REMARK   12  A    between atoms: N3_36  and  C27_37
REMARK   13  A    between atoms: C27_37  and  C28_38
REMARK   14  A    between atoms: C27_37  and  C29_39
REMARK   15  A    between atoms: C27_37  and  C30_40
REMARK                            x       y       z     vdW  Elec       q    Type
REMARK                         _______ _______ _______ _____ _____    ______ ____
ROOT
ATOM      1  C15 UNL     1       0.176   1.875   0.599  1.00  0.00    +0.149 C 
ENDROOT
BRANCH   1   2
ATOM      2  O5  UNL     1       0.931   2.410   1.709  1.00  0.00    -0.389 OA
ATOM      3  H20 UNL     1       1.844   2.610   1.414  1.00  0.00    +0.210 HD
ENDBRANCH   1   2
BRANCH   1   4
ATOM      4  C7  UNL     1       1.090   1.698  -0.651  1.00  0.00    +0.110 C 
BRANCH   4   7
ATOM      5  C6  UNL     1       3.205   0.829   0.302  1.00  0.00    +0.401 C 
ATOM      6  O4  UNL     1       3.499   1.862   0.884  1.00  0.00    -0.226 OA
ATOM      7  N1  UNL     1       2.099   0.655  -0.467  1.00  0.00    -0.275 N 
ATOM      8  H10 UNL     1       1.890  -0.296  -0.743  1.00  0.00    +0.152 HD
BRANCH   5   9
ATOM      9  O3  UNL     1       3.902  -0.335   0.368  1.00  0.00    -0.445 OA
BRANCH   9  17
ATOM     10  C1  UNL     1       6.393  -1.408  -0.677  1.00  0.00    +0.013 C 
ATOM     11  C2  UNL     1       6.033  -1.428   0.800  1.00  0.00    +0.049 C 
ATOM     12  C3  UNL     1       5.347  -2.731   1.203  1.00  0.00    +0.173 C 
ATOM     13  S1  UNL     1       4.616  -2.372   2.792  1.00  0.00    -0.027 S 
ATOM     14  O1  UNL     1       3.242  -2.835   2.791  1.00  0.00    -0.174 OA
ATOM     15  O2  UNL     1       5.559  -2.770   3.820  1.00  0.00    -0.174 OA
ATOM     16  C4  UNL     1       4.651  -0.590   2.659  1.00  0.00    +0.210 C 
ATOM     17  C5  UNL     1       5.063  -0.306   1.217  1.00  0.00    +0.203 C 
ENDBRANCH   9  17
ENDBRANCH   5   9
ENDBRANCH   4   7
BRANCH   4  18
ATOM     18  C8  UNL     1       0.302   1.495  -1.961  1.00  0.00    +0.060 C 
BRANCH  18  19
ATOM     19  C9  UNL     1       1.167   1.693  -3.190  1.00  0.00    -0.046 A 
ATOM     20  C10 UNL     1       1.431   2.983  -3.669  1.00  0.00    +0.004 A 
ATOM     21  C11 UNL     1       2.268   3.171  -4.770  1.00  0.00    +0.000 A 
ATOM     22  C12 UNL     1       2.850   2.071  -5.400  1.00  0.00    +0.000 A 
ATOM     23  C13 UNL     1       2.588   0.783  -4.937  1.00  0.00    +0.000 A 
ATOM     24  C14 UNL     1       1.747   0.593  -3.839  1.00  0.00    +0.004 A 
ENDBRANCH  18  19
ENDBRANCH   4  18
ENDBRANCH   1   4
BRANCH   1  25
ATOM     25  C16 UNL     1      -0.523   0.596   1.131  1.00  0.00    +0.118 C 
BRANCH  25  26
ATOM     26  N2  UNL     1      -1.317  -0.170   0.146  1.00  0.00    -0.289 NA
ATOM     27  C17 UNL     1      -0.876  -1.582   0.078  1.00  0.00    +0.089 C 
ATOM     28  C18 UNL     1      -1.948  -2.647   0.400  1.00  0.00    +0.006 C 
ATOM     29  C19 UNL     1      -1.338  -4.054   0.515  1.00  0.00    +0.005 C 
ATOM     30  C20 UNL     1      -0.580  -4.289   1.822  1.00  0.00    +0.000 C 
ATOM     31  C21 UNL     1      -1.436  -3.945   3.033  1.00  0.00    +0.000 C 
ATOM     32  C22 UNL     1      -1.976  -2.521   2.952  1.00  0.00    +0.004 C 
ATOM     33  C23 UNL     1      -2.763  -2.279   1.652  1.00  0.00    -0.005 C 
ATOM     34  C24 UNL     1      -3.282  -0.829   1.585  1.00  0.00    +0.032 C 
ATOM     35  C25 UNL     1      -2.792  -0.084   0.336  1.00  0.00    +0.143 C 
BRANCH  35  36
ATOM     36  C26 UNL     1      -3.368   1.356   0.305  1.00  0.00    +0.231 C 
ATOM     37  O6  UNL     1      -2.858   2.308   0.890  1.00  0.00    -0.274 OA
ATOM     38  N3  UNL     1      -4.560   1.462  -0.392  1.00  0.00    -0.309 N 
ATOM     39  H38 UNL     1      -4.903   0.636  -0.877  1.00  0.00    +0.149 HD
BRANCH  38  40
ATOM     40  C27 UNL     1      -5.307   2.712  -0.605  1.00  0.00    +0.026 C 
ATOM     41  C28 UNL     1      -4.475   3.705  -1.431  1.00  0.00    +0.031 C 
ATOM     42  C29 UNL     1      -6.588   2.375  -1.392  1.00  0.00    +0.031 C 
ATOM     43  C30 UNL     1      -5.724   3.356   0.729  1.00  0.00    +0.031 C 
ENDBRANCH  38  40
ENDBRANCH  35  36
ENDBRANCH  25  26
ENDBRANCH   1  25
TORSDOF 11
