REMARK  Name = 
REMARK  9 active torsions:
REMARK  status: ('A' for Active; 'I' for Inactive)
REMARK    1  A    between atoms: C1_1  and  O1_2
REMARK    2  A    between atoms: O1_2  and  C2_3
REMARK    3  A    between atoms: C7_8  and  C8_9
REMARK    4  A    between atoms: C10_11  and  O2_12
REMARK    5  A    between atoms: C11_13  and  S1_14
REMARK    6  A    between atoms: S1_14  and  C12_15
REMARK    7  A    between atoms: C17_20  and  C18_21
REMARK    8  A    between atoms: C18_21  and  C19_22
REMARK    9  A    between atoms: C18_21  and  C20_23
REMARK                            x       y       z     vdW  Elec       q    Type
REMARK                         _______ _______ _______ _____ _____    ______ ____
ROOT
ATOM      1  C8  UNL     1       1.902   0.579  -0.877  1.00  0.00    +0.146 A 
ATOM      2  C9  UNL     1       1.600  -0.718  -1.003  1.00  0.00    +0.093 A 
ATOM      3  C10 UNL     1       0.268  -1.100  -1.383  1.00  0.00    +0.141 A 
ATOM      4  C11 UNL     1      -0.688  -0.179  -1.605  1.00  0.00    +0.139 A 
ATOM      5  C21 UNL     1      -0.320   1.272  -1.558  1.00  0.00    +0.355 A 
ATOM      6  O3  UNL     1      -1.102   2.172  -1.855  1.00  0.00    -0.244 OA
ATOM      7  O4  UNL     1       0.955   1.582  -1.162  1.00  0.00    -0.421 OA
ENDROOT
BRANCH   1  13
ATOM      8  C2  UNL     1       3.948   0.606   0.629  1.00  0.00    +0.131 A 
ATOM      9  C3  UNL     1       5.215   1.132   0.915  1.00  0.00    +0.046 A 
ATOM     10  C4  UNL     1       5.770   2.131   0.112  1.00  0.00    +0.004 A 
ATOM     11  C5  UNL     1       5.066   2.616  -0.984  1.00  0.00    +0.001 A 
ATOM     12  C6  UNL     1       3.808   2.095  -1.285  1.00  0.00    +0.015 A 
ATOM     13  C7  UNL     1       3.237   1.080  -0.496  1.00  0.00    +0.059 A 
BRANCH   8  15
ATOM     14  C1  UNL     1       3.895  -0.647   2.661  1.00  0.00    +0.277 C 
ATOM     15  O1  UNL     1       3.337  -0.365   1.383  1.00  0.00    -0.494 OA
ENDBRANCH   8  15
ENDBRANCH   1  13
BRANCH   3  16
ATOM     16  O2  UNL     1       0.056  -2.457  -1.513  1.00  0.00    -0.505 OA
ATOM     17  H9  UNL     1       0.828  -2.943  -1.179  1.00  0.00    +0.292 HD
ENDBRANCH   3  16
BRANCH   4  18
ATOM     18  S1  UNL     1      -2.324  -0.543  -2.080  1.00  0.00    -0.079 S 
BRANCH  18  19
ATOM     19  C12 UNL     1      -2.949  -1.389  -0.627  1.00  0.00    +0.016 A 
ATOM     20  C13 UNL     1      -2.856  -2.796  -0.675  1.00  0.00    +0.015 A 
ATOM     21  C14 UNL     1      -3.293  -3.602   0.375  1.00  0.00    +0.001 A 
ATOM     22  C15 UNL     1      -3.851  -3.014   1.496  1.00  0.00    +0.000 A 
ATOM     23  C16 UNL     1      -3.990  -1.628   1.549  1.00  0.00    +0.005 A 
ATOM     24  C17 UNL     1      -3.571  -0.785   0.488  1.00  0.00    -0.031 A 
BRANCH  24  25
ATOM     25  C18 UNL     1      -3.856   0.701   0.695  1.00  0.00    +0.014 C 
ATOM     26  C19 UNL     1      -2.663   1.419   1.325  1.00  0.00    +0.012 C 
ATOM     27  C20 UNL     1      -4.421   1.465  -0.504  1.00  0.00    +0.012 C 
ENDBRANCH  24  25
ENDBRANCH  18  19
ENDBRANCH   4  18
TORSDOF 6
