REMARK  Name = 
REMARK  11 active torsions:
REMARK  status: ('A' for Active; 'I' for Inactive)
REMARK    1  A    between atoms: C1_1  and  C2_2
REMARK    2  A    between atoms: C2_2  and  C3_3
REMARK    3  A    between atoms: C2_2  and  C4_4
REMARK    4  A    between atoms: C6_8  and  C7_9
REMARK    5  A    between atoms: C7_9  and  O2_10
REMARK    6  A    between atoms: C7_9  and  C8_11
REMARK    7  A    between atoms: C8_11  and  C9_12
REMARK    8  A    between atoms: C8_11  and  N2_19
REMARK    9  A    between atoms: C9_12  and  C10_13
REMARK   10  A    between atoms: C16_20  and  O4_22
REMARK   11  A    between atoms: O4_22  and  C17_23
REMARK                            x       y       z     vdW  Elec       q    Type
REMARK                         _______ _______ _______ _____ _____    ______ ____
ROOT
ATOM      1  C4  UNL     1       1.887  -3.196  -1.212  1.00  0.00    +0.161 C 
ATOM      2  N1  UNL     1       1.053  -2.097  -1.694  1.00  0.00    -0.302 N 
ATOM      3  C5  UNL     1      -0.327  -2.139  -1.624  1.00  0.00    +0.233 C 
ATOM      4  O1  UNL     1      -0.962  -3.159  -1.400  1.00  0.00    -0.274 OA
ATOM      5  C6  UNL     1      -0.969  -0.761  -1.912  1.00  0.00    +0.171 C 
ATOM      6  N3  UNL     1       0.029   0.281  -1.562  1.00  0.00    -0.300 NA
ATOM      7  C21 UNL     1      -0.176   1.563  -2.221  1.00  0.00    +0.117 C 
ATOM      8  C22 UNL     1       1.087   2.368  -2.029  1.00  0.00    -0.033 A 
ATOM      9  C23 UNL     1       1.265   3.161  -0.885  1.00  0.00    +0.008 A 
ATOM     10  C24 UNL     1       2.491   3.783  -0.645  1.00  0.00    +0.046 A 
ATOM     11  C25 UNL     1       3.551   3.603  -1.532  1.00  0.00    +0.121 A 
ATOM     12  C26 UNL     1       3.368   2.867  -2.702  1.00  0.00    +0.046 A 
ATOM     13  C27 UNL     1       2.147   2.235  -2.939  1.00  0.00    +0.008 A 
ATOM     14  O6  UNL     1       4.732   4.222  -1.231  1.00  0.00    -0.490 OA
ATOM     15  C28 UNL     1       5.861   3.328  -1.197  1.00  0.00    +0.257 C 
ATOM     16  C29 UNL     1       6.201   2.959   0.248  1.00  0.00    +0.201 C 
ATOM     17  O7  UNL     1       5.287   1.968   0.734  1.00  0.00    -0.374 OA
ATOM     18  C30 UNL     1       5.646   1.530   2.049  1.00  0.00    +0.188 C 
ATOM     19  C31 UNL     1       4.588   0.567   2.591  1.00  0.00    +0.188 C 
ATOM     20  O8  UNL     1       4.692  -0.702   1.930  1.00  0.00    -0.376 OA
ATOM     21  C32 UNL     1       3.909  -1.731   2.557  1.00  0.00    +0.178 C 
ATOM     22  C33 UNL     1       2.413  -1.604   2.244  1.00  0.00    +0.132 C 
ATOM     23  N4  UNL     1       2.134  -1.809   0.832  1.00  0.00    -0.312 N 
ATOM     24  C34 UNL     1       1.980  -3.093   0.332  1.00  0.00    +0.234 C 
ATOM     25  O9  UNL     1       2.029  -4.087   1.055  1.00  0.00    -0.274 OA
ATOM     26  H9  UNL     1       1.426  -1.149  -1.723  1.00  0.00    +0.150 HD
ATOM     27  H29 UNL     1       0.101   0.417  -0.554  1.00  0.00    +0.123 HD
ATOM     28  H48 UNL     1       2.494  -1.107   0.196  1.00  0.00    +0.149 HD
ENDROOT
BRANCH   1  30
ATOM     29  C1  UNL     1       3.204  -3.182  -3.391  1.00  0.00    +0.009 C 
ATOM     30  C2  UNL     1       3.292  -3.137  -1.857  1.00  0.00    +0.012 C 
ATOM     31  C3  UNL     1       4.185  -4.285  -1.378  1.00  0.00    +0.009 C 
ENDBRANCH   1  30
BRANCH   5  32
ATOM     32  C7  UNL     1      -2.395  -0.624  -1.297  1.00  0.00    +0.161 C 
BRANCH  32  33
ATOM     33  O2  UNL     1      -3.156   0.181  -2.228  1.00  0.00    -0.388 OA
ATOM     34  H12 UNL     1      -3.181   1.103  -1.900  1.00  0.00    +0.210 HD
ENDBRANCH  32  33
BRANCH  32  35
ATOM     35  C8  UNL     1      -2.479  -0.016   0.143  1.00  0.00    +0.111 C 
BRANCH  35  36
ATOM     36  N2  UNL     1      -3.860   0.308   0.516  1.00  0.00    -0.275 N 
ATOM     37  C16 UNL     1      -4.511   1.414   0.071  1.00  0.00    +0.401 C 
ATOM     38  O3  UNL     1      -3.988   2.308  -0.578  1.00  0.00    -0.226 OA
ATOM     39  H21 UNL     1      -4.471  -0.440   0.820  1.00  0.00    +0.152 HD
BRANCH  37  40
ATOM     40  O4  UNL     1      -5.813   1.344   0.423  1.00  0.00    -0.445 OA
BRANCH  40  41
ATOM     41  C17 UNL     1      -6.626   2.417  -0.049  1.00  0.00    +0.206 C 
ATOM     42  C18 UNL     1      -8.077   2.141   0.275  1.00  0.00    +0.075 C 
ATOM     43  C19 UNL     1      -8.676   3.527   0.222  1.00  0.00    +0.163 C 
ATOM     44  O5  UNL     1      -7.665   4.429   0.688  1.00  0.00    -0.376 OA
ATOM     45  C20 UNL     1      -6.404   3.732   0.686  1.00  0.00    +0.204 C 
ENDBRANCH  40  41
ENDBRANCH  37  40
ENDBRANCH  35  36
BRANCH  35  46
ATOM     46  C9  UNL     1      -1.768  -0.826   1.256  1.00  0.00    +0.060 C 
BRANCH  46  47
ATOM     47  C10 UNL     1      -2.593  -1.878   1.962  1.00  0.00    -0.046 A 
ATOM     48  C11 UNL     1      -3.397  -1.520   3.059  1.00  0.00    +0.004 A 
ATOM     49  C12 UNL     1      -4.168  -2.477   3.719  1.00  0.00    +0.000 A 
ATOM     50  C13 UNL     1      -4.143  -3.805   3.296  1.00  0.00    +0.000 A 
ATOM     51  C14 UNL     1      -3.344  -4.174   2.217  1.00  0.00    +0.000 A 
ATOM     52  C15 UNL     1      -2.576  -3.217   1.550  1.00  0.00    +0.004 A 
ENDBRANCH  46  47
ENDBRANCH  35  46
ENDBRANCH  32  35
ENDBRANCH   5  32
TORSDOF 9
