REMARK  Name = 
REMARK  13 active torsions:
REMARK  status: ('A' for Active; 'I' for Inactive)
REMARK    1  A    between atoms: C1_1  and  C2_2
REMARK    2  A    between atoms: C2_2  and  C3_3
REMARK    3  A    between atoms: C3_3  and  N1_4
REMARK    4  A    between atoms: N2_6  and  C5_7
REMARK    5  A    between atoms: N4_9  and  C6_10
REMARK    6  A    between atoms: C6_10  and  C7_11
REMARK    7  A    between atoms: C7_11  and  C8_12
REMARK    8  A    between atoms: C9_13  and  C10_14
REMARK    9  A    between atoms: C10_14  and  C11_15
REMARK   10  A    between atoms: C17_21  and  O1_22
REMARK   11  A    between atoms: C18_23  and  O2_24
REMARK   12  A    between atoms: C19_25  and  C20_26
REMARK   13  A    between atoms: C20_26  and  C21_27
REMARK                            x       y       z     vdW  Elec       q    Type
REMARK                         _______ _______ _______ _____ _____    ______ ____
ROOT
ATOM      1  N1  UNL     1       0.976  -0.632   1.471  1.00  0.00    -0.297 N 
ATOM      2  C4  UNL     1       0.416  -1.846   1.066  1.00  0.00    +0.197 C 
ATOM      3  N2  UNL     1       0.795  -2.925   1.683  1.00  0.00    -0.142 NA
ATOM      4  N4  UNL     1      -0.485  -1.693   0.008  1.00  0.00    -0.297 N 
ATOM      5  C9  UNL     1      -1.271  -0.418  -0.089  1.00  0.00    +0.111 C 
ATOM      6  C17 UNL     1      -0.533   0.724  -0.849  1.00  0.00    +0.165 C 
ATOM      7  C18 UNL     1       0.742   1.263  -0.163  1.00  0.00    +0.165 C 
ATOM      8  C19 UNL     1       1.672   0.156   0.394  1.00  0.00    +0.111 C 
ENDROOT
BRANCH   3   9
ATOM      9  C5  UNL     1       0.279  -4.121   1.409  1.00  0.00    +0.208 C 
ATOM     10  N3  UNL     1      -0.116  -5.194   1.205  1.00  0.00    -0.169 NA
ENDBRANCH   3   9
BRANCH   6  11
ATOM     11  O1  UNL     1      -0.219   0.379  -2.207  1.00  0.00    -0.387 OA
ATOM     12  H24 UNL     1      -1.055   0.345  -2.701  1.00  0.00    +0.210 HD
ENDBRANCH   6  11
BRANCH   7  13
ATOM     13  O2  UNL     1       0.404   2.222   0.851  1.00  0.00    -0.387 OA
ATOM     14  H26 UNL     1      -0.091   2.940   0.421  1.00  0.00    +0.210 HD
ENDBRANCH   7  13
BRANCH   1  15
ATOM     15  C3  UNL     1       1.435  -0.522   2.874  1.00  0.00    +0.108 C 
BRANCH  15  17
ATOM     16  C1  UNL     1      -0.515   0.834   3.799  1.00  0.00    +0.005 C 
ATOM     17  C2  UNL     1       0.990   0.758   3.583  1.00  0.00    +0.016 C 
ENDBRANCH  15  17
ENDBRANCH   1  15
BRANCH   4  18
ATOM     18  C6  UNL     1      -0.348  -2.547  -1.191  1.00  0.00    +0.108 C 
BRANCH  18  19
ATOM     19  C7  UNL     1      -1.496  -3.549  -1.353  1.00  0.00    +0.016 C 
ATOM     20  C8  UNL     1      -1.103  -4.711  -2.254  1.00  0.00    +0.005 C 
ENDBRANCH  18  19
ENDBRANCH   4  18
BRANCH   5  21
ATOM     21  C10 UNL     1      -2.691  -0.666  -0.655  1.00  0.00    +0.060 C 
BRANCH  21  22
ATOM     22  C11 UNL     1      -3.639   0.502  -0.489  1.00  0.00    -0.046 A 
ATOM     23  C12 UNL     1      -4.064   0.902   0.786  1.00  0.00    +0.004 A 
ATOM     24  C13 UNL     1      -4.921   1.993   0.937  1.00  0.00    +0.000 A 
ATOM     25  C14 UNL     1      -5.365   2.693  -0.183  1.00  0.00    +0.000 A 
ATOM     26  C15 UNL     1      -4.960   2.298  -1.457  1.00  0.00    +0.000 A 
ATOM     27  C16 UNL     1      -4.105   1.205  -1.611  1.00  0.00    +0.004 A 
ENDBRANCH  21  22
ENDBRANCH   5  21
BRANCH   8  28
ATOM     28  C20 UNL     1       3.061   0.701   0.810  1.00  0.00    +0.060 C 
BRANCH  28  29
ATOM     29  C21 UNL     1       3.870   1.293  -0.325  1.00  0.00    -0.046 A 
ATOM     30  C22 UNL     1       4.423   0.467  -1.314  1.00  0.00    +0.004 A 
ATOM     31  C23 UNL     1       5.167   1.017  -2.359  1.00  0.00    +0.000 A 
ATOM     32  C24 UNL     1       5.368   2.394  -2.424  1.00  0.00    +0.000 A 
ATOM     33  C25 UNL     1       4.825   3.224  -1.445  1.00  0.00    +0.000 A 
ATOM     34  C26 UNL     1       4.080   2.677  -0.400  1.00  0.00    +0.004 A 
ENDBRANCH  28  29
ENDBRANCH   8  28
TORSDOF 11
