REMARK  Name = 
REMARK  17 active torsions:
REMARK  status: ('A' for Active; 'I' for Inactive)
REMARK    1  A    between atoms: C1_1  and  C2_2
REMARK    2  A    between atoms: C5_5  and  S1_6
REMARK    3  A    between atoms: S1_6  and  N1_9
REMARK    4  A    between atoms: N1_9  and  C6_10
REMARK    5  A    between atoms: N1_9  and  C10_14
REMARK    6  A    between atoms: C6_10  and  C7_11
REMARK    7  A    between atoms: C7_11  and  C8_12
REMARK    8  A    between atoms: C7_11  and  C9_13
REMARK    9  A    between atoms: C10_14  and  C11_15
REMARK   10  A    between atoms: C10_14  and  C23_30
REMARK   11  A    between atoms: C11_15  and  C12_16
REMARK   12  A    between atoms: C12_16  and  C13_17
REMARK   13  A    between atoms: C13_17  and  C14_18
REMARK   14  A    between atoms: C14_18  and  N2_19
REMARK   15  A    between atoms: N3_22  and  C16_23
REMARK   16  A    between atoms: C16_23  and  C17_24
REMARK   17  A    between atoms: C23_30  and  O5_32
REMARK                            x       y       z     vdW  Elec       q    Type
REMARK                         _______ _______ _______ _____ _____    ______ ____
ROOT
ATOM      1  C10 UNL     1      -1.925   0.668   0.304  1.00  0.00    +0.188 C 
ENDROOT
BRANCH   1   2
ATOM      2  C23 UNL     1      -2.664   1.985   0.142  1.00  0.00    +0.324 C 
ATOM      3  O4  UNL     1      -2.474   2.856  -0.689  1.00  0.00    -0.249 OA
BRANCH   2   4
ATOM      4  O5  UNL     1      -3.639   2.136   1.068  1.00  0.00    -0.479 OA
ATOM      5  H33 UNL     1      -4.077   2.979   0.821  1.00  0.00    +0.295 HD
ENDBRANCH   2   4
ENDBRANCH   1   2
BRANCH   1   6
ATOM      6  N1  UNL     1      -2.768  -0.552   0.086  1.00  0.00    -0.163 NA
BRANCH   6   7
ATOM      7  S1  UNL     1      -3.703  -0.717  -1.322  1.00  0.00    +0.062 S 
ATOM      8  O1  UNL     1      -2.945  -0.178  -2.430  1.00  0.00    -0.153 OA
ATOM      9  O2  UNL     1      -4.196  -2.078  -1.367  1.00  0.00    -0.153 OA
BRANCH   7  14
ATOM     10  C1  UNL     1      -8.603   2.809  -0.588  1.00  0.00    +0.044 C 
ATOM     11  C2  UNL     1      -7.383   1.951  -0.748  1.00  0.00    -0.050 A 
ATOM     12  C3  UNL     1      -6.345   2.352  -1.598  1.00  0.00    +0.005 A 
ATOM     13  C4  UNL     1      -5.221   1.542  -1.775  1.00  0.00    +0.029 A 
ATOM     14  C5  UNL     1      -5.124   0.330  -1.084  1.00  0.00    +0.106 A 
ATOM     15  C24 UNL     1      -6.181  -0.108  -0.281  1.00  0.00    +0.029 A 
ATOM     16  C25 UNL     1      -7.303   0.706  -0.109  1.00  0.00    +0.005 A 
ENDBRANCH   7  14
ENDBRANCH   6   7
BRANCH   6  17
ATOM     17  C6  UNL     1      -3.267  -1.187   1.331  1.00  0.00    +0.113 C 
BRANCH  17  18
ATOM     18  C7  UNL     1      -2.186  -2.098   1.939  1.00  0.00    -0.001 C 
ATOM     19  C8  UNL     1      -1.877  -3.290   1.030  1.00  0.00    +0.008 C 
ATOM     20  C9  UNL     1      -2.634  -2.595   3.315  1.00  0.00    +0.008 C 
ENDBRANCH  17  18
ENDBRANCH   6  17
ENDBRANCH   1   6
BRANCH   1  21
ATOM     21  C11 UNL     1      -0.651   0.583  -0.556  1.00  0.00    +0.032 C 
BRANCH  21  22
ATOM     22  C12 UNL     1       0.475   1.473  -0.014  1.00  0.00    +0.004 C 
BRANCH  22  23
ATOM     23  C13 UNL     1       1.772   1.370  -0.824  1.00  0.00    +0.019 C 
BRANCH  23  24
ATOM     24  C14 UNL     1       2.472   0.021  -0.661  1.00  0.00    +0.106 C 
BRANCH  24  25
ATOM     25  N2  UNL     1       3.756  -0.018  -1.331  1.00  0.00    -0.299 N 
ATOM     26  C15 UNL     1       4.862   0.587  -0.789  1.00  0.00    +0.300 C 
ATOM     27  O3  UNL     1       4.868   1.182   0.279  1.00  0.00    -0.253 OA
ATOM     28  N3  UNL     1       5.952   0.431  -1.606  1.00  0.00    -0.295 N 
ATOM     29  H24 UNL     1       3.752  -0.102  -2.337  1.00  0.00    +0.150 HD
ATOM     30  H25 UNL     1       5.945  -0.426  -2.140  1.00  0.00    +0.151 HD
BRANCH  28  31
ATOM     31  C16 UNL     1       7.256   0.899  -1.190  1.00  0.00    +0.141 C 
BRANCH  31  32
ATOM     32  C17 UNL     1       8.017  -0.174  -0.455  1.00  0.00    -0.030 A 
ATOM     33  C18 UNL     1       8.838  -1.076  -1.149  1.00  0.00    +0.005 A 
ATOM     34  C19 UNL     1       9.524  -2.079  -0.462  1.00  0.00    +0.000 A 
ATOM     35  C20 UNL     1       9.391  -2.196   0.922  1.00  0.00    +0.000 A 
ATOM     36  C21 UNL     1       8.569  -1.313   1.619  1.00  0.00    +0.000 A 
ATOM     37  C22 UNL     1       7.884  -0.309   0.935  1.00  0.00    +0.005 A 
ENDBRANCH  31  32
ENDBRANCH  28  31
ENDBRANCH  24  25
ENDBRANCH  23  24
ENDBRANCH  22  23
ENDBRANCH  21  22
ENDBRANCH   1  21
TORSDOF 14
