MODEL 1
REMARK VINA RESULT:    -9.117      0.000      0.000
REMARK INTER + INTRA:         -18.884
REMARK INTER:                 -16.312
REMARK INTRA:                  -2.572
REMARK UNBOUND:                -2.572
REMARK  Name = 
REMARK  17 active torsions:
REMARK  status: ('A' for Active; 'I' for Inactive)
REMARK    1  A    between atoms: C1_1  and  C2_2
REMARK    2  A    between atoms: C5_5  and  S1_6
REMARK    3  A    between atoms: S1_6  and  N1_9
REMARK    4  A    between atoms: N1_9  and  C6_10
REMARK    5  A    between atoms: N1_9  and  C10_14
REMARK    6  A    between atoms: C6_10  and  C7_11
REMARK    7  A    between atoms: C7_11  and  C8_12
REMARK    8  A    between atoms: C7_11  and  C9_13
REMARK    9  A    between atoms: C10_14  and  C11_15
REMARK   10  A    between atoms: C10_14  and  C23_30
REMARK   11  A    between atoms: C11_15  and  C12_16
REMARK   12  A    between atoms: C12_16  and  C13_17
REMARK   13  A    between atoms: C13_17  and  C14_18
REMARK   14  A    between atoms: C14_18  and  N2_19
REMARK   15  A    between atoms: N3_22  and  C16_23
REMARK   16  A    between atoms: C16_23  and  C17_24
REMARK   17  A    between atoms: C23_30  and  O5_32
REMARK                            x       y       z     vdW  Elec       q    Type
REMARK                         _______ _______ _______ _____ _____    ______ ____
ROOT
ATOM      1  C10 UNL     1       9.117  17.428   8.561  1.00  0.00    +0.188 C 
ENDROOT
BRANCH   1   2
ATOM      2  C23 UNL     1      10.399  18.236   8.666  1.00  0.00    +0.324 C 
ATOM      3  O4  UNL     1      11.430  18.095   8.033  1.00  0.00    -0.249 OA
BRANCH   2   4
ATOM      4  O5  UNL     1      10.305  19.215   9.595  1.00  0.00    -0.479 OA
ATOM      5  H33 UNL     1       9.507  19.723   9.330  1.00  0.00    +0.295 HD
ENDBRANCH   2   4
ENDBRANCH   1   2
BRANCH   1   6
ATOM      6  N1  UNL     1       9.137  16.126   9.305  1.00  0.00    -0.163 NA
BRANCH   6   7
ATOM      7  S1  UNL     1       9.338  14.659   8.475  1.00  0.00    +0.062 S 
ATOM      8  O1  UNL     1      10.488  13.981   9.033  1.00  0.00    -0.153 OA
ATOM      9  O2  UNL     1       8.051  13.997   8.430  1.00  0.00    -0.153 OA
BRANCH   7  14
ATOM     10  C1  UNL     1      10.730  16.273   2.779  1.00  0.00    +0.044 C 
ATOM     11  C2  UNL     1      10.383  15.850   4.176  1.00  0.00    -0.050 A 
ATOM     12  C3  UNL     1       9.068  15.969   4.643  1.00  0.00    +0.005 A 
ATOM     13  C4  UNL     1       8.745  15.606   5.952  1.00  0.00    +0.029 A 
ATOM     14  C5  UNL     1       9.739  15.103   6.797  1.00  0.00    +0.106 A 
ATOM     15  C24 UNL     1      11.066  15.038   6.361  1.00  0.00    +0.029 A 
ATOM     16  C25 UNL     1      11.382  15.403   5.051  1.00  0.00    +0.005 A 
ENDBRANCH   7  14
ENDBRANCH   6   7
BRANCH   6  17
ATOM     17  C6  UNL     1       8.331  16.116  10.551  1.00  0.00    +0.113 C 
BRANCH  17  18
ATOM     18  C7  UNL     1       9.139  15.503  11.708  1.00  0.00    -0.001 C 
ATOM     19  C8  UNL     1       8.236  15.106  12.878  1.00  0.00    +0.008 C 
ATOM     20  C9  UNL     1      10.204  16.493  12.184  1.00  0.00    +0.008 C 
ENDBRANCH  17  18
ENDBRANCH   6  17
ENDBRANCH   1   6
BRANCH   1  21
ATOM     21  C11 UNL     1       7.864  18.233   8.951  1.00  0.00    +0.032 C 
BRANCH  21  22
ATOM     22  C12 UNL     1       6.720  18.048   7.945  1.00  0.00    +0.004 C 
BRANCH  22  23
ATOM     23  C13 UNL     1       5.434  17.509   8.581  1.00  0.00    +0.019 C 
BRANCH  23  24
ATOM     24  C14 UNL     1       4.922  18.385   9.725  1.00  0.00    +0.106 C 
BRANCH  24  25
ATOM     25  N2  UNL     1       4.997  17.715  11.007  1.00  0.00    -0.299 N 
ATOM     26  C15 UNL     1       5.264  18.410  12.160  1.00  0.00    +0.300 C 
ATOM     27  O3  UNL     1       5.442  19.619  12.211  1.00  0.00    -0.253 OA
ATOM     28  N3  UNL     1       5.300  17.566  13.240  1.00  0.00    -0.295 N 
ATOM     29  H24 UNL     1       5.273  16.744  11.008  1.00  0.00    +0.150 HD
ATOM     30  H25 UNL     1       4.690  16.766  13.156  1.00  0.00    +0.151 HD
BRANCH  28  31
ATOM     31  C16 UNL     1       5.464  18.091  14.578  1.00  0.00    +0.141 C 
BRANCH  31  32
ATOM     32  C17 UNL     1       6.740  17.599  15.210  1.00  0.00    -0.030 A 
ATOM     33  C18 UNL     1       6.712  16.648  16.241  1.00  0.00    +0.005 A 
ATOM     34  C19 UNL     1       7.898  16.212  16.834  1.00  0.00    +0.000 A 
ATOM     35  C20 UNL     1       9.123  16.727  16.408  1.00  0.00    +0.000 A 
ATOM     36  C21 UNL     1       9.162  17.681  15.393  1.00  0.00    +0.000 A 
ATOM     37  C22 UNL     1       7.978  18.116  14.798  1.00  0.00    +0.005 A 
ENDBRANCH  31  32
ENDBRANCH  28  31
ENDBRANCH  24  25
ENDBRANCH  23  24
ENDBRANCH  22  23
ENDBRANCH  21  22
ENDBRANCH   1  21
TORSDOF 14
ENDMDL
MODEL 2
REMARK VINA RESULT:    -8.854      2.682      8.087
REMARK INTER + INTRA:         -18.414
REMARK INTER:                 -15.985
REMARK INTRA:                  -2.430
REMARK UNBOUND:                -2.572
REMARK  Name = 
REMARK  17 active torsions:
REMARK  status: ('A' for Active; 'I' for Inactive)
REMARK    1  A    between atoms: C1_1  and  C2_2
REMARK    2  A    between atoms: C5_5  and  S1_6
REMARK    3  A    between atoms: S1_6  and  N1_9
REMARK    4  A    between atoms: N1_9  and  C6_10
REMARK    5  A    between atoms: N1_9  and  C10_14
REMARK    6  A    between atoms: C6_10  and  C7_11
REMARK    7  A    between atoms: C7_11  and  C8_12
REMARK    8  A    between atoms: C7_11  and  C9_13
REMARK    9  A    between atoms: C10_14  and  C11_15
REMARK   10  A    between atoms: C10_14  and  C23_30
REMARK   11  A    between atoms: C11_15  and  C12_16
REMARK   12  A    between atoms: C12_16  and  C13_17
REMARK   13  A    between atoms: C13_17  and  C14_18
REMARK   14  A    between atoms: C14_18  and  N2_19
REMARK   15  A    between atoms: N3_22  and  C16_23
REMARK   16  A    between atoms: C16_23  and  C17_24
REMARK   17  A    between atoms: C23_30  and  O5_32
REMARK                            x       y       z     vdW  Elec       q    Type
REMARK                         _______ _______ _______ _____ _____    ______ ____
ROOT
ATOM      1  C10 UNL     1       9.908  16.437   6.933  1.00  0.00    +0.188 C 
ENDROOT
BRANCH   1   2
ATOM      2  C23 UNL     1      11.091  17.241   7.444  1.00  0.00    +0.324 C 
ATOM      3  O4  UNL     1      12.032  16.850   8.113  1.00  0.00    -0.249 OA
BRANCH   2   4
ATOM      4  O5  UNL     1      11.022  18.539   7.068  1.00  0.00    -0.479 OA
ATOM      5  H33 UNL     1      11.639  18.999   7.678  1.00  0.00    +0.295 HD
ENDBRANCH   2   4
ENDBRANCH   1   2
BRANCH   1   6
ATOM      6  N1  UNL     1       8.873  16.121   7.970  1.00  0.00    -0.163 NA
BRANCH   6   7
ATOM      7  S1  UNL     1       9.029  14.746   8.955  1.00  0.00    +0.062 S 
ATOM      8  O1  UNL     1       7.791  14.001   8.884  1.00  0.00    -0.153 OA
ATOM      9  O2  UNL     1      10.286  14.107   8.626  1.00  0.00    -0.153 OA
BRANCH   7  14
ATOM     10  C1  UNL     1       9.541  16.932  14.607  1.00  0.00    +0.044 C 
ATOM     11  C2  UNL     1       9.425  16.369  13.221  1.00  0.00    -0.050 A 
ATOM     12  C3  UNL     1      10.469  16.534  12.303  1.00  0.00    +0.005 A 
ATOM     13  C4  UNL     1      10.352  16.040  11.001  1.00  0.00    +0.029 A 
ATOM     14  C5  UNL     1       9.192  15.360  10.619  1.00  0.00    +0.106 A 
ATOM     15  C24 UNL     1       8.120  15.244  11.509  1.00  0.00    +0.029 A 
ATOM     16  C25 UNL     1       8.242  15.741  12.808  1.00  0.00    +0.005 A 
ENDBRANCH   7  14
ENDBRANCH   6   7
BRANCH   6  17
ATOM     17  C6  UNL     1       7.505  16.588   7.638  1.00  0.00    +0.113 C 
BRANCH  17  18
ATOM     18  C7  UNL     1       6.942  17.455   8.778  1.00  0.00    -0.001 C 
ATOM     19  C8  UNL     1       5.650  18.162   8.363  1.00  0.00    +0.008 C 
ATOM     20  C9  UNL     1       7.984  18.487   9.213  1.00  0.00    +0.008 C 
ENDBRANCH  17  18
ENDBRANCH   6  17
ENDBRANCH   1   6
BRANCH   1  21
ATOM     21  C11 UNL     1       9.236  17.072   5.702  1.00  0.00    +0.032 C 
BRANCH  21  22
ATOM     22  C12 UNL     1       9.171  16.105   4.513  1.00  0.00    +0.004 C 
BRANCH  22  23
ATOM     23  C13 UNL     1       9.399  16.789   3.161  1.00  0.00    +0.019 C 
BRANCH  23  24
ATOM     24  C14 UNL     1      10.639  16.272   2.432  1.00  0.00    +0.106 C 
BRANCH  24  25
ATOM     25  N2  UNL     1      11.095  15.001   2.955  1.00  0.00    -0.299 N 
ATOM     26  C15 UNL     1      12.383  14.833   3.398  1.00  0.00    +0.300 C 
ATOM     27  O3  UNL     1      13.230  15.714   3.405  1.00  0.00    -0.253 OA
ATOM     28  N3  UNL     1      12.586  13.547   3.830  1.00  0.00    -0.295 N 
ATOM     29  H24 UNL     1      10.638  14.168   2.614  1.00  0.00    +0.150 HD
ATOM     30  H25 UNL     1      11.762  13.110   4.217  1.00  0.00    +0.151 HD
BRANCH  28  31
ATOM     31  C16 UNL     1      13.842  13.165   4.437  1.00  0.00    +0.141 C 
BRANCH  31  32
ATOM     32  C17 UNL     1      13.790  13.294   5.937  1.00  0.00    -0.030 A 
ATOM     33  C18 UNL     1      14.404  14.376   6.586  1.00  0.00    +0.005 A 
ATOM     34  C19 UNL     1      14.368  14.477   7.978  1.00  0.00    +0.000 A 
ATOM     35  C20 UNL     1      13.725  13.497   8.735  1.00  0.00    +0.000 A 
ATOM     36  C21 UNL     1      13.123  12.412   8.101  1.00  0.00    +0.000 A 
ATOM     37  C22 UNL     1      13.157  12.310   6.710  1.00  0.00    +0.005 A 
ENDBRANCH  31  32
ENDBRANCH  28  31
ENDBRANCH  24  25
ENDBRANCH  23  24
ENDBRANCH  22  23
ENDBRANCH  21  22
ENDBRANCH   1  21
TORSDOF 14
ENDMDL
MODEL 3
REMARK VINA RESULT:    -8.798      2.008      3.919
REMARK INTER + INTRA:         -18.313
REMARK INTER:                 -15.557
REMARK INTRA:                  -2.756
REMARK UNBOUND:                -2.572
REMARK  Name = 
REMARK  17 active torsions:
REMARK  status: ('A' for Active; 'I' for Inactive)
REMARK    1  A    between atoms: C1_1  and  C2_2
REMARK    2  A    between atoms: C5_5  and  S1_6
REMARK    3  A    between atoms: S1_6  and  N1_9
REMARK    4  A    between atoms: N1_9  and  C6_10
REMARK    5  A    between atoms: N1_9  and  C10_14
REMARK    6  A    between atoms: C6_10  and  C7_11
REMARK    7  A    between atoms: C7_11  and  C8_12
REMARK    8  A    between atoms: C7_11  and  C9_13
REMARK    9  A    between atoms: C10_14  and  C11_15
REMARK   10  A    between atoms: C10_14  and  C23_30
REMARK   11  A    between atoms: C11_15  and  C12_16
REMARK   12  A    between atoms: C12_16  and  C13_17
REMARK   13  A    between atoms: C13_17  and  C14_18
REMARK   14  A    between atoms: C14_18  and  N2_19
REMARK   15  A    between atoms: N3_22  and  C16_23
REMARK   16  A    between atoms: C16_23  and  C17_24
REMARK   17  A    between atoms: C23_30  and  O5_32
REMARK                            x       y       z     vdW  Elec       q    Type
REMARK                         _______ _______ _______ _____ _____    ______ ____
ROOT
ATOM      1  C10 UNL     1       7.776  17.070   8.618  1.00  0.00    +0.188 C 
ENDROOT
BRANCH   1   2
ATOM      2  C23 UNL     1       7.632  15.968   9.654  1.00  0.00    +0.324 C 
ATOM      3  O4  UNL     1       7.609  14.764   9.471  1.00  0.00    -0.249 OA
BRANCH   2   4
ATOM      4  O5  UNL     1       7.524  16.464  10.908  1.00  0.00    -0.479 OA
ATOM      5  H33 UNL     1       8.451  16.646  11.176  1.00  0.00    +0.295 HD
ENDBRANCH   2   4
ENDBRANCH   1   2
BRANCH   1   6
ATOM      6  N1  UNL     1       9.076  17.060   7.872  1.00  0.00    -0.163 NA
BRANCH   6   7
ATOM      7  S1  UNL     1      10.524  17.485   8.651  1.00  0.00    +0.062 S 
ATOM      8  O1  UNL     1      11.215  18.446   7.821  1.00  0.00    -0.153 OA
ATOM      9  O2  UNL     1      10.207  17.803  10.028  1.00  0.00    -0.153 OA
BRANCH   7  14
ATOM     10  C1  UNL     1      13.850  12.394   8.676  1.00  0.00    +0.044 C 
ATOM     11  C2  UNL     1      13.039  13.656   8.694  1.00  0.00    -0.050 A 
ATOM     12  C3  UNL     1      11.720  13.640   9.164  1.00  0.00    +0.005 A 
ATOM     13  C4  UNL     1      10.950  14.805   9.153  1.00  0.00    +0.029 A 
ATOM     14  C5  UNL     1      11.507  16.000   8.687  1.00  0.00    +0.106 A 
ATOM     15  C24 UNL     1      12.802  16.014   8.160  1.00  0.00    +0.029 A 
ATOM     16  C25 UNL     1      13.566  14.845   8.172  1.00  0.00    +0.005 A 
ENDBRANCH   7  14
ENDBRANCH   6   7
BRANCH   6  17
ATOM     17  C6  UNL     1       8.956  17.347   6.421  1.00  0.00    +0.113 C 
BRANCH  17  18
ATOM     18  C7  UNL     1       9.641  16.242   5.597  1.00  0.00    -0.001 C 
ATOM     19  C8  UNL     1       9.486  16.482   4.094  1.00  0.00    +0.008 C 
ATOM     20  C9  UNL     1       9.061  14.876   5.970  1.00  0.00    +0.008 C 
ENDBRANCH  17  18
ENDBRANCH   6  17
ENDBRANCH   1   6
BRANCH   1  21
ATOM     21  C11 UNL     1       6.603  17.117   7.622  1.00  0.00    +0.032 C 
BRANCH  21  22
ATOM     22  C12 UNL     1       5.439  17.973   8.138  1.00  0.00    +0.004 C 
BRANCH  22  23
ATOM     23  C13 UNL     1       5.873  19.365   8.611  1.00  0.00    +0.019 C 
BRANCH  23  24
ATOM     24  C14 UNL     1       5.379  19.698  10.018  1.00  0.00    +0.106 C 
BRANCH  24  25
ATOM     25  N2  UNL     1       6.344  19.342  11.039  1.00  0.00    -0.299 N 
ATOM     26  C15 UNL     1       5.953  19.074  12.327  1.00  0.00    +0.300 C 
ATOM     27  O3  UNL     1       4.794  19.098  12.715  1.00  0.00    -0.253 OA
ATOM     28  N3  UNL     1       7.037  18.778  13.113  1.00  0.00    -0.295 N 
ATOM     29  H24 UNL     1       7.285  19.691  10.931  1.00  0.00    +0.150 HD
ATOM     30  H25 UNL     1       7.794  18.330  12.616  1.00  0.00    +0.151 HD
BRANCH  28  31
ATOM     31  C16 UNL     1       6.858  18.362  14.487  1.00  0.00    +0.141 C 
BRANCH  31  32
ATOM     32  C17 UNL     1       8.025  17.540  14.970  1.00  0.00    -0.030 A 
ATOM     33  C18 UNL     1       9.015  17.105  14.077  1.00  0.00    +0.005 A 
ATOM     34  C19 UNL     1      10.083  16.327  14.530  1.00  0.00    +0.000 A 
ATOM     35  C20 UNL     1      10.167  15.972  15.877  1.00  0.00    +0.000 A 
ATOM     36  C21 UNL     1       9.182  16.389  16.770  1.00  0.00    +0.000 A 
ATOM     37  C22 UNL     1       8.116  17.167  16.319  1.00  0.00    +0.005 A 
ENDBRANCH  31  32
ENDBRANCH  28  31
ENDBRANCH  24  25
ENDBRANCH  23  24
ENDBRANCH  22  23
ENDBRANCH  21  22
ENDBRANCH   1  21
TORSDOF 14
ENDMDL
MODEL 4
REMARK VINA RESULT:    -8.392      2.012      3.637
REMARK INTER + INTRA:         -17.587
REMARK INTER:                 -14.948
REMARK INTRA:                  -2.639
REMARK UNBOUND:                -2.572
REMARK  Name = 
REMARK  17 active torsions:
REMARK  status: ('A' for Active; 'I' for Inactive)
REMARK    1  A    between atoms: C1_1  and  C2_2
REMARK    2  A    between atoms: C5_5  and  S1_6
REMARK    3  A    between atoms: S1_6  and  N1_9
REMARK    4  A    between atoms: N1_9  and  C6_10
REMARK    5  A    between atoms: N1_9  and  C10_14
REMARK    6  A    between atoms: C6_10  and  C7_11
REMARK    7  A    between atoms: C7_11  and  C8_12
REMARK    8  A    between atoms: C7_11  and  C9_13
REMARK    9  A    between atoms: C10_14  and  C11_15
REMARK   10  A    between atoms: C10_14  and  C23_30
REMARK   11  A    between atoms: C11_15  and  C12_16
REMARK   12  A    between atoms: C12_16  and  C13_17
REMARK   13  A    between atoms: C13_17  and  C14_18
REMARK   14  A    between atoms: C14_18  and  N2_19
REMARK   15  A    between atoms: N3_22  and  C16_23
REMARK   16  A    between atoms: C16_23  and  C17_24
REMARK   17  A    between atoms: C23_30  and  O5_32
REMARK                            x       y       z     vdW  Elec       q    Type
REMARK                         _______ _______ _______ _____ _____    ______ ____
ROOT
ATOM      1  C10 UNL     1       9.310  17.102   8.316  1.00  0.00    +0.188 C 
ENDROOT
BRANCH   1   2
ATOM      2  C23 UNL     1       9.826  17.994   9.432  1.00  0.00    +0.324 C 
ATOM      3  O4  UNL     1       9.543  17.955  10.617  1.00  0.00    -0.249 OA
BRANCH   2   4
ATOM      4  O5  UNL     1      10.704  18.917   8.978  1.00  0.00    -0.479 OA
ATOM      5  H33 UNL     1      10.386  19.129   8.074  1.00  0.00    +0.295 HD
ENDBRANCH   2   4
ENDBRANCH   1   2
BRANCH   1   6
ATOM      6  N1  UNL     1      10.369  16.310   7.610  1.00  0.00    -0.163 NA
BRANCH   6   7
ATOM      7  S1  UNL     1      11.714  15.715   8.458  1.00  0.00    +0.062 S 
ATOM      8  O1  UNL     1      12.711  16.763   8.512  1.00  0.00    -0.153 OA
ATOM      9  O2  UNL     1      11.231  15.103   9.679  1.00  0.00    -0.153 OA
BRANCH   7  14
ATOM     10  C1  UNL     1      14.041  11.204   5.109  1.00  0.00    +0.044 C 
ATOM     11  C2  UNL     1      13.447  12.319   5.918  1.00  0.00    -0.050 A 
ATOM     12  C3  UNL     1      13.851  13.642   5.699  1.00  0.00    +0.005 A 
ATOM     13  C4  UNL     1      13.324  14.680   6.471  1.00  0.00    +0.029 A 
ATOM     14  C5  UNL     1      12.373  14.398   7.457  1.00  0.00    +0.106 A 
ATOM     15  C24 UNL     1      12.009  13.075   7.724  1.00  0.00    +0.029 A 
ATOM     16  C25 UNL     1      12.540  12.041   6.950  1.00  0.00    +0.005 A 
ENDBRANCH   7  14
ENDBRANCH   6   7
BRANCH   6  17
ATOM     17  C6  UNL     1      10.547  16.658   6.178  1.00  0.00    +0.113 C 
BRANCH  17  18
ATOM     18  C7  UNL     1       9.341  16.175   5.354  1.00  0.00    -0.001 C 
ATOM     19  C8  UNL     1       9.142  14.662   5.480  1.00  0.00    +0.008 C 
ATOM     20  C9  UNL     1       9.525  16.556   3.884  1.00  0.00    +0.008 C 
ENDBRANCH  17  18
ENDBRANCH   6  17
ENDBRANCH   1   6
BRANCH   1  21
ATOM     21  C11 UNL     1       8.174  16.168   8.768  1.00  0.00    +0.032 C 
BRANCH  21  22
ATOM     22  C12 UNL     1       6.800  16.650   8.284  1.00  0.00    +0.004 C 
BRANCH  22  23
ATOM     23  C13 UNL     1       6.790  18.122   7.857  1.00  0.00    +0.019 C 
BRANCH  23  24
ATOM     24  C14 UNL     1       6.001  19.016   8.813  1.00  0.00    +0.106 C 
BRANCH  24  25
ATOM     25  N2  UNL     1       6.661  19.169  10.094  1.00  0.00    -0.299 N 
ATOM     26  C15 UNL     1       6.165  18.574  11.227  1.00  0.00    +0.300 C 
ATOM     27  O3  UNL     1       5.164  17.873  11.256  1.00  0.00    -0.253 OA
ATOM     28  N3  UNL     1       6.945  18.873  12.315  1.00  0.00    -0.295 N 
ATOM     29  H24 UNL     1       7.199  20.010  10.241  1.00  0.00    +0.150 HD
ATOM     30  H25 UNL     1       7.921  19.011  12.094  1.00  0.00    +0.151 HD
BRANCH  28  31
ATOM     31  C16 UNL     1       6.674  18.271  13.602  1.00  0.00    +0.141 C 
BRANCH  31  32
ATOM     32  C17 UNL     1       7.812  17.392  14.050  1.00  0.00    -0.030 A 
ATOM     33  C18 UNL     1       8.158  16.240  13.326  1.00  0.00    +0.005 A 
ATOM     34  C19 UNL     1       9.201  15.421  13.759  1.00  0.00    +0.000 A 
ATOM     35  C20 UNL     1       9.905  15.738  14.922  1.00  0.00    +0.000 A 
ATOM     36  C21 UNL     1       9.562  16.873  15.654  1.00  0.00    +0.000 A 
ATOM     37  C22 UNL     1       8.520  17.694  15.222  1.00  0.00    +0.005 A 
ENDBRANCH  31  32
ENDBRANCH  28  31
ENDBRANCH  24  25
ENDBRANCH  23  24
ENDBRANCH  22  23
ENDBRANCH  21  22
ENDBRANCH   1  21
TORSDOF 14
ENDMDL
MODEL 5
REMARK VINA RESULT:    -8.383      1.658      4.294
REMARK INTER + INTRA:         -17.570
REMARK INTER:                 -15.077
REMARK INTRA:                  -2.494
REMARK UNBOUND:                -2.572
REMARK  Name = 
REMARK  17 active torsions:
REMARK  status: ('A' for Active; 'I' for Inactive)
REMARK    1  A    between atoms: C1_1  and  C2_2
REMARK    2  A    between atoms: C5_5  and  S1_6
REMARK    3  A    between atoms: S1_6  and  N1_9
REMARK    4  A    between atoms: N1_9  and  C6_10
REMARK    5  A    between atoms: N1_9  and  C10_14
REMARK    6  A    between atoms: C6_10  and  C7_11
REMARK    7  A    between atoms: C7_11  and  C8_12
REMARK    8  A    between atoms: C7_11  and  C9_13
REMARK    9  A    between atoms: C10_14  and  C11_15
REMARK   10  A    between atoms: C10_14  and  C23_30
REMARK   11  A    between atoms: C11_15  and  C12_16
REMARK   12  A    between atoms: C12_16  and  C13_17
REMARK   13  A    between atoms: C13_17  and  C14_18
REMARK   14  A    between atoms: C14_18  and  N2_19
REMARK   15  A    between atoms: N3_22  and  C16_23
REMARK   16  A    between atoms: C16_23  and  C17_24
REMARK   17  A    between atoms: C23_30  and  O5_32
REMARK                            x       y       z     vdW  Elec       q    Type
REMARK                         _______ _______ _______ _____ _____    ______ ____
ROOT
ATOM      1  C10 UNL     1      10.037  16.881   9.847  1.00  0.00    +0.188 C 
ENDROOT
BRANCH   1   2
ATOM      2  C23 UNL     1      10.504  18.074   9.032  1.00  0.00    +0.324 C 
ATOM      3  O4  UNL     1      11.036  18.073   7.935  1.00  0.00    -0.249 OA
BRANCH   2   4
ATOM      4  O5  UNL     1      10.265  19.245   9.665  1.00  0.00    -0.479 OA
ATOM      5  H33 UNL     1      10.436  19.928   8.981  1.00  0.00    +0.295 HD
ENDBRANCH   2   4
ENDBRANCH   1   2
BRANCH   1   6
ATOM      6  N1  UNL     1       9.863  15.617   9.061  1.00  0.00    -0.163 NA
BRANCH   6   7
ATOM      7  S1  UNL     1       8.420  15.313   8.218  1.00  0.00    +0.062 S 
ATOM      8  O1  UNL     1       8.066  13.925   8.420  1.00  0.00    -0.153 OA
ATOM      9  O2  UNL     1       7.483  16.364   8.556  1.00  0.00    -0.153 OA
BRANCH   7  14
ATOM     10  C1  UNL     1       9.667  16.013   2.307  1.00  0.00    +0.044 C 
ATOM     11  C2  UNL     1       9.385  15.844   3.771  1.00  0.00    -0.050 A 
ATOM     12  C3  UNL     1       9.401  14.569   4.350  1.00  0.00    +0.005 A 
ATOM     13  C4  UNL     1       9.108  14.403   5.706  1.00  0.00    +0.029 A 
ATOM     14  C5  UNL     1       8.815  15.521   6.494  1.00  0.00    +0.106 A 
ATOM     15  C24 UNL     1       8.737  16.790   5.913  1.00  0.00    +0.029 A 
ATOM     16  C25 UNL     1       9.029  16.949   4.556  1.00  0.00    +0.005 A 
ENDBRANCH   7  14
ENDBRANCH   6   7
BRANCH   6  17
ATOM     17  C6  UNL     1      10.618  14.453   9.590  1.00  0.00    +0.113 C 
BRANCH  17  18
ATOM     18  C7  UNL     1      11.542  13.875   8.504  1.00  0.00    -0.001 C 
ATOM     19  C8  UNL     1      12.478  12.805   9.072  1.00  0.00    +0.008 C 
ATOM     20  C9  UNL     1      12.362  14.997   7.863  1.00  0.00    +0.008 C 
ENDBRANCH  17  18
ENDBRANCH   6  17
ENDBRANCH   1   6
BRANCH   1  21
ATOM     21  C11 UNL     1      10.918  16.612  11.080  1.00  0.00    +0.032 C 
BRANCH  21  22
ATOM     22  C12 UNL     1      10.240  17.054  12.384  1.00  0.00    +0.004 C 
BRANCH  22  23
ATOM     23  C13 UNL     1      10.041  15.908  13.382  1.00  0.00    +0.019 C 
BRANCH  23  24
ATOM     24  C14 UNL     1       8.829  16.112  14.291  1.00  0.00    +0.106 C 
BRANCH  24  25
ATOM     25  N2  UNL     1       7.586  16.163  13.549  1.00  0.00    -0.299 N 
ATOM     26  C15 UNL     1       6.918  17.346  13.356  1.00  0.00    +0.300 C 
ATOM     27  O3  UNL     1       7.305  18.430  13.767  1.00  0.00    -0.253 OA
ATOM     28  N3  UNL     1       5.765  17.144  12.642  1.00  0.00    -0.295 N 
ATOM     29  H24 UNL     1       7.013  15.331  13.546  1.00  0.00    +0.150 HD
ATOM     30  H25 UNL     1       5.817  16.377  11.987  1.00  0.00    +0.151 HD
BRANCH  28  31
ATOM     31  C16 UNL     1       4.949  18.264  12.230  1.00  0.00    +0.141 C 
BRANCH  31  32
ATOM     32  C17 UNL     1       5.178  18.610  10.782  1.00  0.00    -0.030 A 
ATOM     33  C18 UNL     1       4.379  18.049   9.774  1.00  0.00    +0.005 A 
ATOM     34  C19 UNL     1       4.612  18.360   8.433  1.00  0.00    +0.000 A 
ATOM     35  C20 UNL     1       5.649  19.226   8.085  1.00  0.00    +0.000 A 
ATOM     36  C21 UNL     1       6.456  19.779   9.077  1.00  0.00    +0.000 A 
ATOM     37  C22 UNL     1       6.224  19.472  10.418  1.00  0.00    +0.005 A 
ENDBRANCH  31  32
ENDBRANCH  28  31
ENDBRANCH  24  25
ENDBRANCH  23  24
ENDBRANCH  22  23
ENDBRANCH  21  22
ENDBRANCH   1  21
TORSDOF 14
ENDMDL
MODEL 6
REMARK VINA RESULT:    -8.284      2.938      9.605
REMARK INTER + INTRA:         -17.394
REMARK INTER:                 -15.287
REMARK INTRA:                  -2.107
REMARK UNBOUND:                -2.572
REMARK  Name = 
REMARK  17 active torsions:
REMARK  status: ('A' for Active; 'I' for Inactive)
REMARK    1  A    between atoms: C1_1  and  C2_2
REMARK    2  A    between atoms: C5_5  and  S1_6
REMARK    3  A    between atoms: S1_6  and  N1_9
REMARK    4  A    between atoms: N1_9  and  C6_10
REMARK    5  A    between atoms: N1_9  and  C10_14
REMARK    6  A    between atoms: C6_10  and  C7_11
REMARK    7  A    between atoms: C7_11  and  C8_12
REMARK    8  A    between atoms: C7_11  and  C9_13
REMARK    9  A    between atoms: C10_14  and  C11_15
REMARK   10  A    between atoms: C10_14  and  C23_30
REMARK   11  A    between atoms: C11_15  and  C12_16
REMARK   12  A    between atoms: C12_16  and  C13_17
REMARK   13  A    between atoms: C13_17  and  C14_18
REMARK   14  A    between atoms: C14_18  and  N2_19
REMARK   15  A    between atoms: N3_22  and  C16_23
REMARK   16  A    between atoms: C16_23  and  C17_24
REMARK   17  A    between atoms: C23_30  and  O5_32
REMARK                            x       y       z     vdW  Elec       q    Type
REMARK                         _______ _______ _______ _____ _____    ______ ____
ROOT
ATOM      1  C10 UNL     1      11.079  15.490   8.859  1.00  0.00    +0.188 C 
ENDROOT
BRANCH   1   2
ATOM      2  C23 UNL     1      12.287  15.997   8.091  1.00  0.00    +0.324 C 
ATOM      3  O4  UNL     1      13.365  16.353   8.536  1.00  0.00    -0.249 OA
BRANCH   2   4
ATOM      4  O5  UNL     1      12.064  16.027   6.757  1.00  0.00    -0.479 OA
ATOM      5  H33 UNL     1      12.007  15.081   6.501  1.00  0.00    +0.295 HD
ENDBRANCH   2   4
ENDBRANCH   1   2
BRANCH   1   6
ATOM      6  N1  UNL     1       9.803  16.223   8.570  1.00  0.00    -0.163 NA
BRANCH   6   7
ATOM      7  S1  UNL     1       9.288  17.491   9.576  1.00  0.00    +0.062 S 
ATOM      8  O1  UNL     1      10.258  18.559   9.484  1.00  0.00    -0.153 OA
ATOM      9  O2  UNL     1       7.892  17.744   9.285  1.00  0.00    -0.153 OA
BRANCH   7  14
ATOM     10  C1  UNL     1       9.475  15.389  15.279  1.00  0.00    +0.044 C 
ATOM     11  C2  UNL     1       9.436  15.883  13.863  1.00  0.00    -0.050 A 
ATOM     12  C3  UNL     1      10.562  16.496  13.299  1.00  0.00    +0.005 A 
ATOM     13  C4  UNL     1      10.521  16.987  11.992  1.00  0.00    +0.029 A 
ATOM     14  C5  UNL     1       9.353  16.848  11.236  1.00  0.00    +0.106 A 
ATOM     15  C24 UNL     1       8.205  16.293  11.809  1.00  0.00    +0.029 A 
ATOM     16  C25 UNL     1       8.252  15.805  13.117  1.00  0.00    +0.005 A 
ENDBRANCH   7  14
ENDBRANCH   6   7
BRANCH   6  17
ATOM     17  C6  UNL     1       8.766  15.410   7.888  1.00  0.00    +0.113 C 
BRANCH  17  18
ATOM     18  C7  UNL     1       8.599  15.868   6.429  1.00  0.00    -0.001 C 
ATOM     19  C8  UNL     1       9.183  14.849   5.448  1.00  0.00    +0.008 C 
ATOM     20  C9  UNL     1       9.269  17.228   6.228  1.00  0.00    +0.008 C 
ENDBRANCH  17  18
ENDBRANCH   6  17
ENDBRANCH   1   6
BRANCH   1  21
ATOM     21  C11 UNL     1      10.858  13.975   8.700  1.00  0.00    +0.032 C 
BRANCH  21  22
ATOM     22  C12 UNL     1      12.095  13.163   9.106  1.00  0.00    +0.004 C 
BRANCH  22  23
ATOM     23  C13 UNL     1      12.530  12.149   8.043  1.00  0.00    +0.019 C 
BRANCH  23  24
ATOM     24  C14 UNL     1      13.519  12.731   7.033  1.00  0.00    +0.106 C 
BRANCH  24  25
ATOM     25  N2  UNL     1      12.993  12.729   5.683  1.00  0.00    -0.299 N 
ATOM     26  C15 UNL     1      13.387  13.668   4.763  1.00  0.00    +0.300 C 
ATOM     27  O3  UNL     1      14.199  14.553   4.986  1.00  0.00    -0.253 OA
ATOM     28  N3  UNL     1      12.746  13.475   3.566  1.00  0.00    -0.295 N 
ATOM     29  H24 UNL     1      12.072  12.339   5.544  1.00  0.00    +0.150 HD
ATOM     30  H25 UNL     1      12.522  12.509   3.371  1.00  0.00    +0.151 HD
BRANCH  28  31
ATOM     31  C16 UNL     1      13.080  14.284   2.414  1.00  0.00    +0.141 C 
BRANCH  31  32
ATOM     32  C17 UNL     1      11.880  15.041   1.907  1.00  0.00    -0.030 A 
ATOM     33  C18 UNL     1      11.174  15.915   2.747  1.00  0.00    +0.005 A 
ATOM     34  C19 UNL     1      10.051  16.597   2.274  1.00  0.00    +0.000 A 
ATOM     35  C20 UNL     1       9.619  16.407   0.962  1.00  0.00    +0.000 A 
ATOM     36  C21 UNL     1      10.306  15.532   0.123  1.00  0.00    +0.000 A 
ATOM     37  C22 UNL     1      11.428  14.851   0.592  1.00  0.00    +0.005 A 
ENDBRANCH  31  32
ENDBRANCH  28  31
ENDBRANCH  24  25
ENDBRANCH  23  24
ENDBRANCH  22  23
ENDBRANCH  21  22
ENDBRANCH   1  21
TORSDOF 14
ENDMDL
MODEL 7
REMARK VINA RESULT:    -8.028      2.208      9.276
REMARK INTER + INTRA:         -16.935
REMARK INTER:                 -15.414
REMARK INTRA:                  -1.521
REMARK UNBOUND:                -2.572
REMARK  Name = 
REMARK  17 active torsions:
REMARK  status: ('A' for Active; 'I' for Inactive)
REMARK    1  A    between atoms: C1_1  and  C2_2
REMARK    2  A    between atoms: C5_5  and  S1_6
REMARK    3  A    between atoms: S1_6  and  N1_9
REMARK    4  A    between atoms: N1_9  and  C6_10
REMARK    5  A    between atoms: N1_9  and  C10_14
REMARK    6  A    between atoms: C6_10  and  C7_11
REMARK    7  A    between atoms: C7_11  and  C8_12
REMARK    8  A    between atoms: C7_11  and  C9_13
REMARK    9  A    between atoms: C10_14  and  C11_15
REMARK   10  A    between atoms: C10_14  and  C23_30
REMARK   11  A    between atoms: C11_15  and  C12_16
REMARK   12  A    between atoms: C12_16  and  C13_17
REMARK   13  A    between atoms: C13_17  and  C14_18
REMARK   14  A    between atoms: C14_18  and  N2_19
REMARK   15  A    between atoms: N3_22  and  C16_23
REMARK   16  A    between atoms: C16_23  and  C17_24
REMARK   17  A    between atoms: C23_30  and  O5_32
REMARK                            x       y       z     vdW  Elec       q    Type
REMARK                         _______ _______ _______ _____ _____    ______ ____
ROOT
ATOM      1  C10 UNL     1       9.193  17.417  10.082  1.00  0.00    +0.188 C 
ENDROOT
BRANCH   1   2
ATOM      2  C23 UNL     1      10.158  18.264   9.271  1.00  0.00    +0.324 C 
ATOM      3  O4  UNL     1      10.658  18.006   8.190  1.00  0.00    -0.249 OA
BRANCH   2   4
ATOM      4  O5  UNL     1      10.447  19.433   9.888  1.00  0.00    -0.479 OA
ATOM      5  H33 UNL     1      11.421  19.517   9.800  1.00  0.00    +0.295 HD
ENDBRANCH   2   4
ENDBRANCH   1   2
BRANCH   1   6
ATOM      6  N1  UNL     1       7.830  18.016  10.256  1.00  0.00    -0.163 NA
BRANCH   6   7
ATOM      7  S1  UNL     1       6.708  17.319  11.324  1.00  0.00    +0.062 S 
ATOM      8  O1  UNL     1       5.726  18.325  11.663  1.00  0.00    -0.153 OA
ATOM      9  O2  UNL     1       6.291  16.052  10.759  1.00  0.00    -0.153 OA
BRANCH   7  14
ATOM     10  C1  UNL     1       9.917  16.043  16.329  1.00  0.00    +0.044 C 
ATOM     11  C2  UNL     1       9.103  16.354  15.108  1.00  0.00    -0.050 A 
ATOM     12  C3  UNL     1       8.794  15.343  14.190  1.00  0.00    +0.005 A 
ATOM     13  C4  UNL     1       8.064  15.633  13.036  1.00  0.00    +0.029 A 
ATOM     14  C5  UNL     1       7.622  16.939  12.804  1.00  0.00    +0.106 A 
ATOM     15  C24 UNL     1       7.976  17.967  13.683  1.00  0.00    +0.029 A 
ATOM     16  C25 UNL     1       8.708  17.671  14.835  1.00  0.00    +0.005 A 
ENDBRANCH   7  14
ENDBRANCH   6   7
BRANCH   6  17
ATOM     17  C6  UNL     1       7.307  18.716   9.057  1.00  0.00    +0.113 C 
BRANCH  17  18
ATOM     18  C7  UNL     1       6.460  17.756   8.202  1.00  0.00    -0.001 C 
ATOM     19  C8  UNL     1       7.219  17.294   6.955  1.00  0.00    +0.008 C 
ATOM     20  C9  UNL     1       5.152  18.435   7.793  1.00  0.00    +0.008 C 
ENDBRANCH  17  18
ENDBRANCH   6  17
ENDBRANCH   1   6
BRANCH   1  21
ATOM     21  C11 UNL     1       9.066  15.976   9.554  1.00  0.00    +0.032 C 
BRANCH  21  22
ATOM     22  C12 UNL     1      10.210  15.078  10.042  1.00  0.00    +0.004 C 
BRANCH  22  23
ATOM     23  C13 UNL     1      10.933  14.347   8.905  1.00  0.00    +0.019 C 
BRANCH  23  24
ATOM     24  C14 UNL     1      12.265  14.996   8.530  1.00  0.00    +0.106 C 
BRANCH  24  25
ATOM     25  N2  UNL     1      12.236  15.590   7.209  1.00  0.00    -0.299 N 
ATOM     26  C15 UNL     1      12.644  14.889   6.103  1.00  0.00    +0.300 C 
ATOM     27  O3  UNL     1      13.043  13.734   6.128  1.00  0.00    -0.253 OA
ATOM     28  N3  UNL     1      12.541  15.659   4.973  1.00  0.00    -0.295 N 
ATOM     29  H24 UNL     1      12.327  16.594   7.150  1.00  0.00    +0.150 HD
ATOM     30  H25 UNL     1      11.793  16.337   5.005  1.00  0.00    +0.151 HD
BRANCH  28  31
ATOM     31  C16 UNL     1      12.820  15.095   3.670  1.00  0.00    +0.141 C 
BRANCH  31  32
ATOM     32  C17 UNL     1      11.748  15.455   2.674  1.00  0.00    -0.030 A 
ATOM     33  C18 UNL     1      11.879  15.107   1.321  1.00  0.00    +0.005 A 
ATOM     34  C19 UNL     1      10.891  15.461   0.401  1.00  0.00    +0.000 A 
ATOM     35  C20 UNL     1       9.767  16.172   0.822  1.00  0.00    +0.000 A 
ATOM     36  C21 UNL     1       9.632  16.533   2.161  1.00  0.00    +0.000 A 
ATOM     37  C22 UNL     1      10.618  16.179   3.082  1.00  0.00    +0.005 A 
ENDBRANCH  31  32
ENDBRANCH  28  31
ENDBRANCH  24  25
ENDBRANCH  23  24
ENDBRANCH  22  23
ENDBRANCH  21  22
ENDBRANCH   1  21
TORSDOF 14
ENDMDL
MODEL 8
REMARK VINA RESULT:    -8.018      1.963      4.136
REMARK INTER + INTRA:         -16.917
REMARK INTER:                 -14.750
REMARK INTRA:                  -2.167
REMARK UNBOUND:                -2.572
REMARK  Name = 
REMARK  17 active torsions:
REMARK  status: ('A' for Active; 'I' for Inactive)
REMARK    1  A    between atoms: C1_1  and  C2_2
REMARK    2  A    between atoms: C5_5  and  S1_6
REMARK    3  A    between atoms: S1_6  and  N1_9
REMARK    4  A    between atoms: N1_9  and  C6_10
REMARK    5  A    between atoms: N1_9  and  C10_14
REMARK    6  A    between atoms: C6_10  and  C7_11
REMARK    7  A    between atoms: C7_11  and  C8_12
REMARK    8  A    between atoms: C7_11  and  C9_13
REMARK    9  A    between atoms: C10_14  and  C11_15
REMARK   10  A    between atoms: C10_14  and  C23_30
REMARK   11  A    between atoms: C11_15  and  C12_16
REMARK   12  A    between atoms: C12_16  and  C13_17
REMARK   13  A    between atoms: C13_17  and  C14_18
REMARK   14  A    between atoms: C14_18  and  N2_19
REMARK   15  A    between atoms: N3_22  and  C16_23
REMARK   16  A    between atoms: C16_23  and  C17_24
REMARK   17  A    between atoms: C23_30  and  O5_32
REMARK                            x       y       z     vdW  Elec       q    Type
REMARK                         _______ _______ _______ _____ _____    ______ ____
ROOT
ATOM      1  C10 UNL     1       9.351  16.774  10.488  1.00  0.00    +0.188 C 
ENDROOT
BRANCH   1   2
ATOM      2  C23 UNL     1       9.361  18.192   9.946  1.00  0.00    +0.324 C 
ATOM      3  O4  UNL     1      10.315  18.840   9.553  1.00  0.00    -0.249 OA
BRANCH   2   4
ATOM      4  O5  UNL     1       8.121  18.735   9.924  1.00  0.00    -0.479 OA
ATOM      5  H33 UNL     1       8.283  19.702   9.882  1.00  0.00    +0.295 HD
ENDBRANCH   2   4
ENDBRANCH   1   2
BRANCH   1   6
ATOM      6  N1  UNL     1       9.521  15.707   9.450  1.00  0.00    -0.163 NA
BRANCH   6   7
ATOM      7  S1  UNL     1       8.221  15.249   8.458  1.00  0.00    +0.062 S 
ATOM      8  O1  UNL     1       8.050  13.818   8.573  1.00  0.00    -0.153 OA
ATOM      9  O2  UNL     1       7.116  16.142   8.741  1.00  0.00    -0.153 OA
BRANCH   7  14
ATOM     10  C1  UNL     1      10.091  16.413   2.790  1.00  0.00    +0.044 C 
ATOM     11  C2  UNL     1       9.604  16.130   4.180  1.00  0.00    -0.050 A 
ATOM     12  C3  UNL     1       9.514  17.163   5.121  1.00  0.00    +0.005 A 
ATOM     13  C4  UNL     1       9.092  16.899   6.426  1.00  0.00    +0.029 A 
ATOM     14  C5  UNL     1       8.739  15.596   6.790  1.00  0.00    +0.106 A 
ATOM     15  C24 UNL     1       8.884  14.547   5.877  1.00  0.00    +0.029 A 
ATOM     16  C25 UNL     1       9.308  14.817   4.574  1.00  0.00    +0.005 A 
ENDBRANCH   7  14
ENDBRANCH   6   7
BRANCH   6  17
ATOM     17  C6  UNL     1      10.537  14.678   9.784  1.00  0.00    +0.113 C 
BRANCH  17  18
ATOM     18  C7  UNL     1      11.509  14.481   8.607  1.00  0.00    -0.001 C 
ATOM     19  C8  UNL     1      12.436  13.285   8.836  1.00  0.00    +0.008 C 
ATOM     20  C9  UNL     1      12.338  15.750   8.396  1.00  0.00    +0.008 C 
ENDBRANCH  17  18
ENDBRANCH   6  17
ENDBRANCH   1   6
BRANCH   1  21
ATOM     21  C11 UNL     1      10.363  16.559  11.629  1.00  0.00    +0.032 C 
BRANCH  21  22
ATOM     22  C12 UNL     1       9.674  16.341  12.982  1.00  0.00    +0.004 C 
BRANCH  22  23
ATOM     23  C13 UNL     1      10.639  16.403  14.171  1.00  0.00    +0.019 C 
BRANCH  23  24
ATOM     24  C14 UNL     1       9.940  16.223  15.518  1.00  0.00    +0.106 C 
BRANCH  24  25
ATOM     25  N2  UNL     1       8.502  16.110  15.381  1.00  0.00    -0.299 N 
ATOM     26  C15 UNL     1       7.677  17.183  15.612  1.00  0.00    +0.300 C 
ATOM     27  O3  UNL     1       8.068  18.297  15.930  1.00  0.00    -0.253 OA
ATOM     28  N3  UNL     1       6.363  16.834  15.437  1.00  0.00    -0.295 N 
ATOM     29  H24 UNL     1       8.090  15.201  15.535  1.00  0.00    +0.150 HD
ATOM     30  H25 UNL     1       6.219  16.111  14.746  1.00  0.00    +0.151 HD
BRANCH  28  31
ATOM     31  C16 UNL     1       5.319  17.831  15.527  1.00  0.00    +0.141 C 
BRANCH  31  32
ATOM     32  C17 UNL     1       4.556  17.948  14.232  1.00  0.00    -0.030 A 
ATOM     33  C18 UNL     1       5.217  18.264  13.036  1.00  0.00    +0.005 A 
ATOM     34  C19 UNL     1       4.500  18.390  11.845  1.00  0.00    +0.000 A 
ATOM     35  C20 UNL     1       3.116  18.208  11.838  1.00  0.00    +0.000 A 
ATOM     36  C21 UNL     1       2.449  17.905  13.023  1.00  0.00    +0.000 A 
ATOM     37  C22 UNL     1       3.164  17.777  14.214  1.00  0.00    +0.005 A 
ENDBRANCH  31  32
ENDBRANCH  28  31
ENDBRANCH  24  25
ENDBRANCH  23  24
ENDBRANCH  22  23
ENDBRANCH  21  22
ENDBRANCH   1  21
TORSDOF 14
ENDMDL
MODEL 9
REMARK VINA RESULT:    -7.608      2.627      9.115
REMARK INTER + INTRA:         -16.184
REMARK INTER:                 -14.455
REMARK INTRA:                  -1.729
REMARK UNBOUND:                -2.572
REMARK  Name = 
REMARK  17 active torsions:
REMARK  status: ('A' for Active; 'I' for Inactive)
REMARK    1  A    between atoms: C1_1  and  C2_2
REMARK    2  A    between atoms: C5_5  and  S1_6
REMARK    3  A    between atoms: S1_6  and  N1_9
REMARK    4  A    between atoms: N1_9  and  C6_10
REMARK    5  A    between atoms: N1_9  and  C10_14
REMARK    6  A    between atoms: C6_10  and  C7_11
REMARK    7  A    between atoms: C7_11  and  C8_12
REMARK    8  A    between atoms: C7_11  and  C9_13
REMARK    9  A    between atoms: C10_14  and  C11_15
REMARK   10  A    between atoms: C10_14  and  C23_30
REMARK   11  A    between atoms: C11_15  and  C12_16
REMARK   12  A    between atoms: C12_16  and  C13_17
REMARK   13  A    between atoms: C13_17  and  C14_18
REMARK   14  A    between atoms: C14_18  and  N2_19
REMARK   15  A    between atoms: N3_22  and  C16_23
REMARK   16  A    between atoms: C16_23  and  C17_24
REMARK   17  A    between atoms: C23_30  and  O5_32
REMARK                            x       y       z     vdW  Elec       q    Type
REMARK                         _______ _______ _______ _____ _____    ______ ____
ROOT
ATOM      1  C10 UNL     1       9.908  16.595   8.922  1.00  0.00    +0.188 C 
ENDROOT
BRANCH   1   2
ATOM      2  C23 UNL     1      10.454  17.612   7.935  1.00  0.00    +0.324 C 
ATOM      3  O4  UNL     1      10.437  17.562   6.718  1.00  0.00    -0.249 OA
BRANCH   2   4
ATOM      4  O5  UNL     1      11.011  18.675   8.560  1.00  0.00    -0.479 OA
ATOM      5  H33 UNL     1      10.281  19.044   9.104  1.00  0.00    +0.295 HD
ENDBRANCH   2   4
ENDBRANCH   1   2
BRANCH   1   6
ATOM      6  N1  UNL     1       8.846  17.123   9.839  1.00  0.00    -0.163 NA
BRANCH   6   7
ATOM      7  S1  UNL     1       7.593  18.099   9.240  1.00  0.00    +0.062 S 
ATOM      8  O1  UNL     1       8.060  19.468   9.220  1.00  0.00    -0.153 OA
ATOM      9  O2  UNL     1       7.092  17.480   8.030  1.00  0.00    -0.153 OA
BRANCH   7  14
ATOM     10  C1  UNL     1       3.081  17.836  13.309  1.00  0.00    +0.044 C 
ATOM     11  C2  UNL     1       4.203  17.877  12.314  1.00  0.00    -0.050 A 
ATOM     12  C3  UNL     1       5.409  18.511  12.636  1.00  0.00    +0.005 A 
ATOM     13  C4  UNL     1       6.445  18.580  11.702  1.00  0.00    +0.029 A 
ATOM     14  C5  UNL     1       6.283  17.996  10.442  1.00  0.00    +0.106 A 
ATOM     15  C24 UNL     1       5.062  17.414  10.089  1.00  0.00    +0.029 A 
ATOM     16  C25 UNL     1       4.029  17.350  11.027  1.00  0.00    +0.005 A 
ENDBRANCH   7  14
ENDBRANCH   6   7
BRANCH   6  17
ATOM     17  C6  UNL     1       9.294  17.345  11.237  1.00  0.00    +0.113 C 
BRANCH  17  18
ATOM     18  C7  UNL     1       9.491  15.999  11.957  1.00  0.00    -0.001 C 
ATOM     19  C8  UNL     1       8.152  15.358  12.331  1.00  0.00    +0.008 C 
ATOM     20  C9  UNL     1      10.342  16.198  13.213  1.00  0.00    +0.008 C 
ENDBRANCH  17  18
ENDBRANCH   6  17
ENDBRANCH   1   6
BRANCH   1  21
ATOM     21  C11 UNL     1       9.417  15.302   8.244  1.00  0.00    +0.032 C 
BRANCH  21  22
ATOM     22  C12 UNL     1      10.576  14.374   7.859  1.00  0.00    +0.004 C 
BRANCH  22  23
ATOM     23  C13 UNL     1      11.735  14.403   8.861  1.00  0.00    +0.019 C 
BRANCH  23  24
ATOM     24  C14 UNL     1      13.067  14.796   8.222  1.00  0.00    +0.106 C 
BRANCH  24  25
ATOM     25  N2  UNL     1      12.894  15.409   6.921  1.00  0.00    -0.299 N 
ATOM     26  C15 UNL     1      13.184  14.727   5.767  1.00  0.00    +0.300 C 
ATOM     27  O3  UNL     1      13.589  13.574   5.731  1.00  0.00    -0.253 OA
ATOM     28  N3  UNL     1      12.958  15.513   4.666  1.00  0.00    -0.295 N 
ATOM     29  H24 UNL     1      12.974  16.414   6.867  1.00  0.00    +0.150 HD
ATOM     30  H25 UNL     1      12.215  16.185   4.788  1.00  0.00    +0.151 HD
BRANCH  28  31
ATOM     31  C16 UNL     1      13.099  14.969   3.333  1.00  0.00    +0.141 C 
BRANCH  31  32
ATOM     32  C17 UNL     1      11.961  15.397   2.441  1.00  0.00    -0.030 A 
ATOM     33  C18 UNL     1      10.859  16.089   2.966  1.00  0.00    +0.005 A 
ATOM     34  C19 UNL     1       9.801  16.464   2.136  1.00  0.00    +0.000 A 
ATOM     35  C20 UNL     1       9.830  16.146   0.778  1.00  0.00    +0.000 A 
ATOM     36  C21 UNL     1      10.914  15.449   0.250  1.00  0.00    +0.000 A 
ATOM     37  C22 UNL     1      11.973  15.074   1.076  1.00  0.00    +0.005 A 
ENDBRANCH  31  32
ENDBRANCH  28  31
ENDBRANCH  24  25
ENDBRANCH  23  24
ENDBRANCH  22  23
ENDBRANCH  21  22
ENDBRANCH   1  21
TORSDOF 14
ENDMDL
