MODEL 1
REMARK VINA RESULT:    -9.402      0.000      0.000
REMARK INTER + INTRA:         -16.695
REMARK INTER:                 -15.172
REMARK INTRA:                  -1.522
REMARK UNBOUND:                -1.522
REMARK  Name = 
REMARK  15 active torsions:
REMARK  status: ('A' for Active; 'I' for Inactive)
REMARK    1  A    between atoms: C1_1  and  C2_2
REMARK    2  A    between atoms: C5_8  and  O3_9
REMARK    3  A    between atoms: O3_9  and  C6_10
REMARK    4  A    between atoms: N1_12  and  C7_13
REMARK    5  A    between atoms: C7_13  and  C8_14
REMARK    6  A    between atoms: C7_13  and  C15_21
REMARK    7  A    between atoms: C8_14  and  C9_15
REMARK    8  A    between atoms: C15_21  and  O5_22
REMARK    9  A    between atoms: C15_21  and  C16_23
REMARK   10  A    between atoms: C16_23  and  N2_24
REMARK   11  A    between atoms: C25_33  and  C26_34
REMARK   12  A    between atoms: N3_36  and  C27_37
REMARK   13  A    between atoms: C27_37  and  C28_38
REMARK   14  A    between atoms: C27_37  and  C29_39
REMARK   15  A    between atoms: C27_37  and  C30_40
REMARK                            x       y       z     vdW  Elec       q    Type
REMARK                         _______ _______ _______ _____ _____    ______ ____
ROOT
ATOM      1  C15 UNL     1      10.028  17.703   9.288  1.00  0.00    +0.149 C 
ENDROOT
BRANCH   1   2
ATOM      2  O5  UNL     1      10.808  18.914   9.163  1.00  0.00    -0.389 OA
ATOM      3  H20 UNL     1      10.412  19.485   8.471  1.00  0.00    +0.210 HD
ENDBRANCH   1   2
BRANCH   1   4
ATOM      4  C7  UNL     1      10.708  16.531   8.517  1.00  0.00    +0.110 C 
BRANCH   4   7
ATOM      5  C6  UNL     1       9.777  15.791   6.344  1.00  0.00    +0.401 C 
ATOM      6  O4  UNL     1       9.174  14.832   6.802  1.00  0.00    -0.226 OA
ATOM      7  N1  UNL     1      10.548  16.644   7.068  1.00  0.00    -0.275 N 
ATOM      8  H10 UNL     1      10.844  17.489   6.597  1.00  0.00    +0.152 HD
BRANCH   5   9
ATOM      9  O3  UNL     1       9.737  16.199   5.050  1.00  0.00    -0.445 OA
BRANCH   9  17
ATOM     10  C1  UNL     1      11.988  14.408   4.632  1.00  0.00    +0.013 C 
ATOM     11  C2  UNL     1      10.985  14.752   3.542  1.00  0.00    +0.049 C 
ATOM     12  C3  UNL     1      11.445  15.937   2.696  1.00  0.00    +0.173 C 
ATOM     13  S1  UNL     1       9.976  16.453   1.823  1.00  0.00    -0.027 S 
ATOM     14  O1  UNL     1       9.843  17.892   1.939  1.00  0.00    -0.174 OA
ATOM     15  O2  UNL     1       9.959  15.782   0.536  1.00  0.00    -0.174 OA
ATOM     16  C4  UNL     1       8.786  15.651   2.888  1.00  0.00    +0.210 C 
ATOM     17  C5  UNL     1       9.596  15.146   4.080  1.00  0.00    +0.203 C 
ENDBRANCH   9  17
ENDBRANCH   5   9
ENDBRANCH   4   7
BRANCH   4  18
ATOM     18  C8  UNL     1      12.185  16.319   8.906  1.00  0.00    +0.060 C 
BRANCH  18  19
ATOM     19  C9  UNL     1      12.700  14.956   8.489  1.00  0.00    -0.046 A 
ATOM     20  C10 UNL     1      11.977  13.798   8.807  1.00  0.00    +0.004 A 
ATOM     21  C11 UNL     1      12.423  12.546   8.380  1.00  0.00    +0.000 A 
ATOM     22  C12 UNL     1      13.594  12.441   7.630  1.00  0.00    +0.000 A 
ATOM     23  C13 UNL     1      14.325  13.585   7.314  1.00  0.00    +0.000 A 
ATOM     24  C14 UNL     1      13.883  14.837   7.744  1.00  0.00    +0.004 A 
ENDBRANCH  18  19
ENDBRANCH   4  18
ENDBRANCH   1   4
BRANCH   1  25
ATOM     25  C16 UNL     1       9.804  17.492  10.809  1.00  0.00    +0.118 C 
BRANCH  25  26
ATOM     26  N2  UNL     1       9.191  16.206  11.204  1.00  0.00    -0.289 NA
ATOM     27  C17 UNL     1       9.744  15.716  12.488  1.00  0.00    +0.089 C 
ATOM     28  C18 UNL     1       8.726  15.503  13.631  1.00  0.00    +0.006 C 
ATOM     29  C19 UNL     1       9.425  15.209  14.969  1.00  0.00    +0.005 C 
ATOM     30  C20 UNL     1      10.041  16.445  15.624  1.00  0.00    +0.000 C 
ATOM     31  C21 UNL     1       9.026  17.572  15.754  1.00  0.00    +0.000 C 
ATOM     32  C22 UNL     1       8.392  17.913  14.410  1.00  0.00    +0.004 C 
ATOM     33  C23 UNL     1       7.745  16.682  13.752  1.00  0.00    -0.005 C 
ATOM     34  C24 UNL     1       7.128  17.048  12.387  1.00  0.00    +0.032 C 
ATOM     35  C25 UNL     1       7.702  16.211  11.236  1.00  0.00    +0.143 C 
BRANCH  35  36
ATOM     36  C26 UNL     1       7.024  16.600   9.896  1.00  0.00    +0.231 C 
ATOM     37  O6  UNL     1       6.938  15.845   8.930  1.00  0.00    -0.274 OA
ATOM     38  N3  UNL     1       6.581  17.911   9.858  1.00  0.00    -0.309 N 
ATOM     39  H38 UNL     1       6.658  18.465  10.708  1.00  0.00    +0.149 HD
BRANCH  38  40
ATOM     40  C27 UNL     1       5.878  18.534   8.725  1.00  0.00    +0.026 C 
ATOM     41  C28 UNL     1       5.460  19.971   9.071  1.00  0.00    +0.031 C 
ATOM     42  C29 UNL     1       6.847  18.582   7.528  1.00  0.00    +0.031 C 
ATOM     43  C30 UNL     1       4.645  17.714   8.305  1.00  0.00    +0.031 C 
ENDBRANCH  38  40
ENDBRANCH  35  36
ENDBRANCH  25  26
ENDBRANCH   1  25
TORSDOF 11
ENDMDL
MODEL 2
REMARK VINA RESULT:    -9.397      3.398      7.663
REMARK INTER + INTRA:         -16.687
REMARK INTER:                 -15.770
REMARK INTRA:                  -0.918
REMARK UNBOUND:                -1.522
REMARK  Name = 
REMARK  15 active torsions:
REMARK  status: ('A' for Active; 'I' for Inactive)
REMARK    1  A    between atoms: C1_1  and  C2_2
REMARK    2  A    between atoms: C5_8  and  O3_9
REMARK    3  A    between atoms: O3_9  and  C6_10
REMARK    4  A    between atoms: N1_12  and  C7_13
REMARK    5  A    between atoms: C7_13  and  C8_14
REMARK    6  A    between atoms: C7_13  and  C15_21
REMARK    7  A    between atoms: C8_14  and  C9_15
REMARK    8  A    between atoms: C15_21  and  O5_22
REMARK    9  A    between atoms: C15_21  and  C16_23
REMARK   10  A    between atoms: C16_23  and  N2_24
REMARK   11  A    between atoms: C25_33  and  C26_34
REMARK   12  A    between atoms: N3_36  and  C27_37
REMARK   13  A    between atoms: C27_37  and  C28_38
REMARK   14  A    between atoms: C27_37  and  C29_39
REMARK   15  A    between atoms: C27_37  and  C30_40
REMARK                            x       y       z     vdW  Elec       q    Type
REMARK                         _______ _______ _______ _____ _____    ______ ____
ROOT
ATOM      1  C15 UNL     1      10.478  17.347  10.206  1.00  0.00    +0.149 C 
ENDROOT
BRANCH   1   2
ATOM      2  O5  UNL     1      10.309  18.480  11.088  1.00  0.00    -0.389 OA
ATOM      3  H20 UNL     1       9.353  18.661  11.203  1.00  0.00    +0.210 HD
ENDBRANCH   1   2
BRANCH   1   4
ATOM      4  C7  UNL     1      10.522  16.020  11.022  1.00  0.00    +0.110 C 
BRANCH   4   7
ATOM      5  C6  UNL     1      10.080  16.208  13.452  1.00  0.00    +0.401 C 
ATOM      6  O4  UNL     1      11.254  16.317  13.772  1.00  0.00    -0.226 OA
ATOM      7  N1  UNL     1       9.630  16.042  12.181  1.00  0.00    -0.275 N 
ATOM      8  H10 UNL     1       8.633  16.142  12.042  1.00  0.00    +0.152 HD
BRANCH   5   9
ATOM      9  O3  UNL     1       9.024  16.289  14.302  1.00  0.00    -0.445 OA
BRANCH   9  17
ATOM     10  C1  UNL     1      10.019  15.638  16.955  1.00  0.00    +0.013 C 
ATOM     11  C2  UNL     1       9.010  16.745  16.693  1.00  0.00    +0.049 C 
ATOM     12  C3  UNL     1       7.572  16.253  16.836  1.00  0.00    +0.173 C 
ATOM     13  S1  UNL     1       6.591  17.526  16.058  1.00  0.00    -0.027 S 
ATOM     14  O1  UNL     1       5.641  16.901  15.159  1.00  0.00    -0.174 OA
ATOM     15  O2  UNL     1       6.174  18.462  17.086  1.00  0.00    -0.174 OA
ATOM     16  C4  UNL     1       7.907  18.281  15.114  1.00  0.00    +0.210 C 
ATOM     17  C5  UNL     1       9.102  17.345  15.277  1.00  0.00    +0.203 C 
ENDBRANCH   9  17
ENDBRANCH   5   9
ENDBRANCH   4   7
BRANCH   4  18
ATOM     18  C8  UNL     1      10.292  14.763  10.158  1.00  0.00    +0.060 C 
BRANCH  18  19
ATOM     19  C9  UNL     1      11.532  14.362   9.383  1.00  0.00    -0.046 A 
ATOM     20  C10 UNL     1      12.135  15.264   8.497  1.00  0.00    +0.004 A 
ATOM     21  C11 UNL     1      13.305  14.916   7.821  1.00  0.00    +0.000 A 
ATOM     22  C12 UNL     1      13.883  13.663   8.026  1.00  0.00    +0.000 A 
ATOM     23  C13 UNL     1      13.287  12.754   8.898  1.00  0.00    +0.000 A 
ATOM     24  C14 UNL     1      12.114  13.100   9.572  1.00  0.00    +0.004 A 
ENDBRANCH  18  19
ENDBRANCH   4  18
ENDBRANCH   1   4
BRANCH   1  25
ATOM     25  C16 UNL     1       9.361  17.464   9.136  1.00  0.00    +0.118 C 
BRANCH  25  26
ATOM     26  N2  UNL     1       8.196  16.570   9.310  1.00  0.00    -0.289 NA
ATOM     27  C17 UNL     1       7.248  17.107  10.313  1.00  0.00    +0.089 C 
ATOM     28  C18 UNL     1       5.810  17.375   9.816  1.00  0.00    +0.006 C 
ATOM     29  C19 UNL     1       4.975  18.129  10.864  1.00  0.00    +0.005 C 
ATOM     30  C20 UNL     1       5.315  19.616  10.965  1.00  0.00    +0.000 C 
ATOM     31  C21 UNL     1       5.257  20.295   9.604  1.00  0.00    +0.000 C 
ATOM     32  C22 UNL     1       6.147  19.589   8.586  1.00  0.00    +0.004 C 
ATOM     33  C23 UNL     1       5.798  18.096   8.457  1.00  0.00    -0.005 C 
ATOM     34  C24 UNL     1       6.723  17.401   7.438  1.00  0.00    +0.032 C 
ATOM     35  C25 UNL     1       7.489  16.219   8.047  1.00  0.00    +0.143 C 
BRANCH  35  36
ATOM     36  C26 UNL     1       8.378  15.540   6.972  1.00  0.00    +0.231 C 
ATOM     37  O6  UNL     1       8.877  14.425   7.103  1.00  0.00    -0.274 OA
ATOM     38  N3  UNL     1       8.619  16.338   5.866  1.00  0.00    -0.309 N 
ATOM     39  H38 UNL     1       8.145  17.237   5.815  1.00  0.00    +0.149 HD
BRANCH  38  40
ATOM     40  C27 UNL     1       9.403  15.936   4.687  1.00  0.00    +0.026 C 
ATOM     41  C28 UNL     1       9.048  14.501   4.267  1.00  0.00    +0.031 C 
ATOM     42  C29 UNL     1       9.046  16.887   3.529  1.00  0.00    +0.031 C 
ATOM     43  C30 UNL     1      10.915  16.050   4.947  1.00  0.00    +0.031 C 
ENDBRANCH  38  40
ENDBRANCH  35  36
ENDBRANCH  25  26
ENDBRANCH   1  25
TORSDOF 11
ENDMDL
MODEL 3
REMARK VINA RESULT:    -8.929      3.074      9.286
REMARK INTER + INTRA:         -15.933
REMARK INTER:                 -14.588
REMARK INTRA:                  -1.344
REMARK UNBOUND:                -1.522
REMARK  Name = 
REMARK  15 active torsions:
REMARK  status: ('A' for Active; 'I' for Inactive)
REMARK    1  A    between atoms: C1_1  and  C2_2
REMARK    2  A    between atoms: C5_8  and  O3_9
REMARK    3  A    between atoms: O3_9  and  C6_10
REMARK    4  A    between atoms: N1_12  and  C7_13
REMARK    5  A    between atoms: C7_13  and  C8_14
REMARK    6  A    between atoms: C7_13  and  C15_21
REMARK    7  A    between atoms: C8_14  and  C9_15
REMARK    8  A    between atoms: C15_21  and  O5_22
REMARK    9  A    between atoms: C15_21  and  C16_23
REMARK   10  A    between atoms: C16_23  and  N2_24
REMARK   11  A    between atoms: C25_33  and  C26_34
REMARK   12  A    between atoms: N3_36  and  C27_37
REMARK   13  A    between atoms: C27_37  and  C28_38
REMARK   14  A    between atoms: C27_37  and  C29_39
REMARK   15  A    between atoms: C27_37  and  C30_40
REMARK                            x       y       z     vdW  Elec       q    Type
REMARK                         _______ _______ _______ _____ _____    ______ ____
ROOT
ATOM      1  C15 UNL     1      10.813  17.493   8.100  1.00  0.00    +0.149 C 
ENDROOT
BRANCH   1   2
ATOM      2  O5  UNL     1      11.448  18.791   8.102  1.00  0.00    -0.389 OA
ATOM      3  H20 UNL     1      12.320  18.727   7.659  1.00  0.00    +0.210 HD
ENDBRANCH   1   2
BRANCH   1   4
ATOM      4  C7  UNL     1       9.403  17.572   8.759  1.00  0.00    +0.110 C 
BRANCH   4   7
ATOM      5  C6  UNL     1       8.732  16.386  10.828  1.00  0.00    +0.401 C 
ATOM      6  O4  UNL     1       7.963  15.616  10.272  1.00  0.00    -0.226 OA
ATOM      7  N1  UNL     1       9.445  17.361  10.206  1.00  0.00    -0.275 N 
ATOM      8  H10 UNL     1      10.170  17.805  10.754  1.00  0.00    +0.152 HD
BRANCH   5   9
ATOM      9  O3  UNL     1       9.047  16.364  12.149  1.00  0.00    -0.445 OA
BRANCH   9  17
ATOM     10  C1  UNL     1       6.836  18.194  12.609  1.00  0.00    +0.013 C 
ATOM     11  C2  UNL     1       7.303  17.177  13.639  1.00  0.00    +0.049 C 
ATOM     12  C3  UNL     1       8.326  17.771  14.604  1.00  0.00    +0.173 C 
ATOM     13  S1  UNL     1       9.064  16.350  15.395  1.00  0.00    -0.027 S 
ATOM     14  O1  UNL     1      10.506  16.499  15.376  1.00  0.00    -0.174 OA
ATOM     15  O2  UNL     1       8.335  16.091  16.622  1.00  0.00    -0.174 OA
ATOM     16  C4  UNL     1       8.568  15.134  14.182  1.00  0.00    +0.210 C 
ATOM     17  C5  UNL     1       7.986  15.941  13.024  1.00  0.00    +0.203 C 
ENDBRANCH   9  17
ENDBRANCH   5   9
ENDBRANCH   4   7
BRANCH   4  18
ATOM     18  C8  UNL     1       8.630  18.857   8.399  1.00  0.00    +0.060 C 
BRANCH  18  19
ATOM     19  C9  UNL     1       7.128  18.663   8.460  1.00  0.00    -0.046 A 
ATOM     20  C10 UNL     1       6.339  19.500   9.260  1.00  0.00    +0.004 A 
ATOM     21  C11 UNL     1       4.950  19.356   9.279  1.00  0.00    +0.000 A 
ATOM     22  C12 UNL     1       4.340  18.375   8.497  1.00  0.00    +0.000 A 
ATOM     23  C13 UNL     1       5.116  17.532   7.704  1.00  0.00    +0.000 A 
ATOM     24  C14 UNL     1       6.505  17.672   7.688  1.00  0.00    +0.004 A 
ENDBRANCH  18  19
ENDBRANCH   4  18
ENDBRANCH   1   4
BRANCH   1  25
ATOM     25  C16 UNL     1      10.864  16.992   6.633  1.00  0.00    +0.118 C 
BRANCH  25  26
ATOM     26  N2  UNL     1       9.847  15.987   6.252  1.00  0.00    -0.289 NA
ATOM     27  C17 UNL     1       9.124  16.390   5.024  1.00  0.00    +0.089 C 
ATOM     28  C18 UNL     1       9.210  15.412   3.831  1.00  0.00    +0.006 C 
ATOM     29  C19 UNL     1       8.615  16.020   2.550  1.00  0.00    +0.005 C 
ATOM     30  C20 UNL     1       9.523  17.056   1.885  1.00  0.00    +0.000 C 
ATOM     31  C21 UNL     1      10.921  16.503   1.650  1.00  0.00    +0.000 C 
ATOM     32  C22 UNL     1      11.538  15.970   2.939  1.00  0.00    +0.004 C 
ATOM     33  C23 UNL     1      10.646  14.908   3.606  1.00  0.00    -0.005 C 
ATOM     34  C24 UNL     1      11.281  14.399   4.915  1.00  0.00    +0.032 C 
ATOM     35  C25 UNL     1      10.365  14.596   6.130  1.00  0.00    +0.143 C 
BRANCH  35  36
ATOM     36  C26 UNL     1      11.040  14.039   7.411  1.00  0.00    +0.231 C 
ATOM     37  O6  UNL     1      10.457  13.893   8.482  1.00  0.00    -0.274 OA
ATOM     38  N3  UNL     1      12.393  13.784   7.259  1.00  0.00    -0.309 N 
ATOM     39  H38 UNL     1      12.798  13.899   6.333  1.00  0.00    +0.149 HD
BRANCH  38  40
ATOM     40  C27 UNL     1      13.270  13.225   8.300  1.00  0.00    +0.026 C 
ATOM     41  C28 UNL     1      14.113  12.071   7.735  1.00  0.00    +0.031 C 
ATOM     42  C29 UNL     1      14.223  14.340   8.772  1.00  0.00    +0.031 C 
ATOM     43  C30 UNL     1      12.465  12.740   9.519  1.00  0.00    +0.031 C 
ENDBRANCH  38  40
ENDBRANCH  35  36
ENDBRANCH  25  26
ENDBRANCH   1  25
TORSDOF 11
ENDMDL
MODEL 4
REMARK VINA RESULT:    -8.758      2.269      5.804
REMARK INTER + INTRA:         -15.656
REMARK INTER:                 -14.888
REMARK INTRA:                  -0.769
REMARK UNBOUND:                -1.522
REMARK  Name = 
REMARK  15 active torsions:
REMARK  status: ('A' for Active; 'I' for Inactive)
REMARK    1  A    between atoms: C1_1  and  C2_2
REMARK    2  A    between atoms: C5_8  and  O3_9
REMARK    3  A    between atoms: O3_9  and  C6_10
REMARK    4  A    between atoms: N1_12  and  C7_13
REMARK    5  A    between atoms: C7_13  and  C8_14
REMARK    6  A    between atoms: C7_13  and  C15_21
REMARK    7  A    between atoms: C8_14  and  C9_15
REMARK    8  A    between atoms: C15_21  and  O5_22
REMARK    9  A    between atoms: C15_21  and  C16_23
REMARK   10  A    between atoms: C16_23  and  N2_24
REMARK   11  A    between atoms: C25_33  and  C26_34
REMARK   12  A    between atoms: N3_36  and  C27_37
REMARK   13  A    between atoms: C27_37  and  C28_38
REMARK   14  A    between atoms: C27_37  and  C29_39
REMARK   15  A    between atoms: C27_37  and  C30_40
REMARK                            x       y       z     vdW  Elec       q    Type
REMARK                         _______ _______ _______ _____ _____    ______ ____
ROOT
ATOM      1  C15 UNL     1       9.878  17.697  10.955  1.00  0.00    +0.149 C 
ENDROOT
BRANCH   1   2
ATOM      2  O5  UNL     1       9.022  18.142  12.031  1.00  0.00    -0.389 OA
ATOM      3  H20 UNL     1       8.519  18.932  11.740  1.00  0.00    +0.210 HD
ENDBRANCH   1   2
BRANCH   1   4
ATOM      4  C7  UNL     1      10.270  16.201  11.150  1.00  0.00    +0.110 C 
BRANCH   4   7
ATOM      5  C6  UNL     1      10.609  14.765   9.161  1.00  0.00    +0.401 C 
ATOM      6  O4  UNL     1       9.503  14.250   9.204  1.00  0.00    -0.226 OA
ATOM      7  N1  UNL     1      11.077  15.683  10.046  1.00  0.00    -0.275 N 
ATOM      8  H10 UNL     1      11.937  16.153   9.792  1.00  0.00    +0.152 HD
BRANCH   5   9
ATOM      9  O3  UNL     1      11.538  14.550   8.193  1.00  0.00    -0.445 OA
BRANCH   9  17
ATOM     10  C1  UNL     1      14.109  15.832   8.634  1.00  0.00    +0.013 C 
ATOM     11  C2  UNL     1      13.967  14.398   8.150  1.00  0.00    +0.049 C 
ATOM     12  C3  UNL     1      13.990  14.305   6.627  1.00  0.00    +0.173 C 
ATOM     13  S1  UNL     1      13.361  12.671   6.274  1.00  0.00    -0.027 S 
ATOM     14  O1  UNL     1      12.352  12.771   5.238  1.00  0.00    -0.174 OA
ATOM     15  O2  UNL     1      14.492  11.770   6.159  1.00  0.00    -0.174 OA
ATOM     16  C4  UNL     1      12.576  12.386   7.855  1.00  0.00    +0.210 C 
ATOM     17  C5  UNL     1      12.650  13.725   8.583  1.00  0.00    +0.203 C 
ENDBRANCH   9  17
ENDBRANCH   5   9
ENDBRANCH   4   7
BRANCH   4  18
ATOM     18  C8  UNL     1      10.930  15.915  12.514  1.00  0.00    +0.060 C 
BRANCH  18  19
ATOM     19  C9  UNL     1       9.937  15.968  13.658  1.00  0.00    -0.046 A 
ATOM     20  C10 UNL     1       8.704  15.310  13.555  1.00  0.00    +0.004 A 
ATOM     21  C11 UNL     1       7.809  15.315  14.626  1.00  0.00    +0.000 A 
ATOM     22  C12 UNL     1       8.139  15.976  15.809  1.00  0.00    +0.000 A 
ATOM     23  C13 UNL     1       9.359  16.641  15.919  1.00  0.00    +0.000 A 
ATOM     24  C14 UNL     1      10.253  16.641  14.847  1.00  0.00    +0.004 A 
ENDBRANCH  18  19
ENDBRANCH   4  18
ENDBRANCH   1   4
BRANCH   1  25
ATOM     25  C16 UNL     1       9.136  18.051   9.640  1.00  0.00    +0.118 C 
BRANCH  25  26
ATOM     26  N2  UNL     1       8.072  17.114   9.219  1.00  0.00    -0.289 NA
ATOM     27  C17 UNL     1       6.964  17.078  10.201  1.00  0.00    +0.089 C 
ATOM     28  C18 UNL     1       5.567  17.463   9.667  1.00  0.00    +0.006 C 
ATOM     29  C19 UNL     1       4.541  17.605  10.804  1.00  0.00    +0.005 C 
ATOM     30  C20 UNL     1       4.691  18.897  11.608  1.00  0.00    +0.000 C 
ATOM     31  C21 UNL     1       4.701  20.120  10.702  1.00  0.00    +0.000 C 
ATOM     32  C22 UNL     1       5.773  20.010   9.622  1.00  0.00    +0.004 C 
ATOM     33  C23 UNL     1       5.618  18.726   8.789  1.00  0.00    -0.005 C 
ATOM     34  C24 UNL     1       6.722  18.628   7.718  1.00  0.00    +0.032 C 
ATOM     35  C25 UNL     1       7.552  17.343   7.842  1.00  0.00    +0.143 C 
BRANCH  35  36
ATOM     36  C26 UNL     1       8.625  17.282   6.724  1.00  0.00    +0.231 C 
ATOM     37  O6  UNL     1       9.477  18.150   6.547  1.00  0.00    -0.274 OA
ATOM     38  N3  UNL     1       8.495  16.186   5.888  1.00  0.00    -0.309 N 
ATOM     39  H38 UNL     1       7.786  15.493   6.118  1.00  0.00    +0.149 HD
BRANCH  38  40
ATOM     40  C27 UNL     1       9.393  15.865   4.767  1.00  0.00    +0.026 C 
ATOM     41  C28 UNL     1      10.862  16.032   5.186  1.00  0.00    +0.031 C 
ATOM     42  C29 UNL     1       9.162  14.394   4.374  1.00  0.00    +0.031 C 
ATOM     43  C30 UNL     1       9.095  16.739   3.536  1.00  0.00    +0.031 C 
ENDBRANCH  38  40
ENDBRANCH  35  36
ENDBRANCH  25  26
ENDBRANCH   1  25
TORSDOF 11
ENDMDL
MODEL 5
REMARK VINA RESULT:    -8.480      1.423      5.140
REMARK INTER + INTRA:         -15.207
REMARK INTER:                 -14.259
REMARK INTRA:                  -0.947
REMARK UNBOUND:                -1.522
REMARK  Name = 
REMARK  15 active torsions:
REMARK  status: ('A' for Active; 'I' for Inactive)
REMARK    1  A    between atoms: C1_1  and  C2_2
REMARK    2  A    between atoms: C5_8  and  O3_9
REMARK    3  A    between atoms: O3_9  and  C6_10
REMARK    4  A    between atoms: N1_12  and  C7_13
REMARK    5  A    between atoms: C7_13  and  C8_14
REMARK    6  A    between atoms: C7_13  and  C15_21
REMARK    7  A    between atoms: C8_14  and  C9_15
REMARK    8  A    between atoms: C15_21  and  O5_22
REMARK    9  A    between atoms: C15_21  and  C16_23
REMARK   10  A    between atoms: C16_23  and  N2_24
REMARK   11  A    between atoms: C25_33  and  C26_34
REMARK   12  A    between atoms: N3_36  and  C27_37
REMARK   13  A    between atoms: C27_37  and  C28_38
REMARK   14  A    between atoms: C27_37  and  C29_39
REMARK   15  A    between atoms: C27_37  and  C30_40
REMARK                            x       y       z     vdW  Elec       q    Type
REMARK                         _______ _______ _______ _____ _____    ______ ____
ROOT
ATOM      1  C15 UNL     1       8.670  15.054   8.713  1.00  0.00    +0.149 C 
ENDROOT
BRANCH   1   2
ATOM      2  O5  UNL     1       7.703  14.042   8.354  1.00  0.00    -0.389 OA
ATOM      3  H20 UNL     1       6.799  14.406   8.457  1.00  0.00    +0.210 HD
ENDBRANCH   1   2
BRANCH   1   4
ATOM      4  C7  UNL     1       8.705  16.183   7.639  1.00  0.00    +0.110 C 
BRANCH   4   7
ATOM      5  C6  UNL     1      10.337  16.859   5.902  1.00  0.00    +0.401 C 
ATOM      6  O4  UNL     1      10.252  18.057   6.127  1.00  0.00    -0.226 OA
ATOM      7  N1  UNL     1       9.633  15.892   6.547  1.00  0.00    -0.275 N 
ATOM      8  H10 UNL     1       9.930  14.938   6.384  1.00  0.00    +0.152 HD
BRANCH   5   9
ATOM      9  O3  UNL     1      11.187  16.286   5.011  1.00  0.00    -0.445 OA
BRANCH   9  17
ATOM     10  C1  UNL     1      12.996  14.045   4.620  1.00  0.00    +0.013 C 
ATOM     11  C2  UNL     1      11.846  14.360   3.678  1.00  0.00    +0.049 C 
ATOM     12  C3  UNL     1      12.287  15.245   2.514  1.00  0.00    +0.173 C 
ATOM     13  S1  UNL     1      10.759  15.858   1.822  1.00  0.00    -0.027 S 
ATOM     14  O1  UNL     1      10.874  17.290   1.627  1.00  0.00    -0.174 OA
ATOM     15  O2  UNL     1      10.363  14.966   0.748  1.00  0.00    -0.174 OA
ATOM     16  C4  UNL     1       9.720  15.525   3.238  1.00  0.00    +0.210 C 
ATOM     17  C5  UNL     1      10.682  15.113   4.350  1.00  0.00    +0.203 C 
ENDBRANCH   9  17
ENDBRANCH   5   9
ENDBRANCH   4   7
BRANCH   4  18
ATOM     18  C8  UNL     1       7.309  16.564   7.106  1.00  0.00    +0.060 C 
BRANCH  18  19
ATOM     19  C9  UNL     1       6.603  17.563   8.002  1.00  0.00    -0.046 A 
ATOM     20  C10 UNL     1       7.219  18.778   8.329  1.00  0.00    +0.004 A 
ATOM     21  C11 UNL     1       6.551  19.721   9.112  1.00  0.00    +0.000 A 
ATOM     22  C12 UNL     1       5.261  19.457   9.572  1.00  0.00    +0.000 A 
ATOM     23  C13 UNL     1       4.642  18.249   9.259  1.00  0.00    +0.000 A 
ATOM     24  C14 UNL     1       5.311  17.303   8.481  1.00  0.00    +0.004 A 
ENDBRANCH  18  19
ENDBRANCH   4  18
ENDBRANCH   1   4
BRANCH   1  25
ATOM     25  C16 UNL     1       8.322  15.488  10.161  1.00  0.00    +0.118 C 
BRANCH  25  26
ATOM     26  N2  UNL     1       8.966  16.730  10.641  1.00  0.00    -0.289 NA
ATOM     27  C17 UNL     1       8.203  17.336  11.757  1.00  0.00    +0.089 C 
ATOM     28  C18 UNL     1       8.967  17.513  13.088  1.00  0.00    +0.006 C 
ATOM     29  C19 UNL     1       8.031  17.942  14.230  1.00  0.00    +0.005 C 
ATOM     30  C20 UNL     1       7.163  16.806  14.772  1.00  0.00    +0.000 C 
ATOM     31  C21 UNL     1       8.004  15.597  15.157  1.00  0.00    +0.000 C 
ATOM     32  C22 UNL     1       8.874  15.126  13.996  1.00  0.00    +0.004 C 
ATOM     33  C23 UNL     1       9.771  16.254  13.458  1.00  0.00    -0.005 C 
ATOM     34  C24 UNL     1      10.626  15.760  12.274  1.00  0.00    +0.032 C 
ATOM     35  C25 UNL     1      10.404  16.585  11.000  1.00  0.00    +0.143 C 
BRANCH  35  36
ATOM     36  C26 UNL     1      11.310  16.064   9.854  1.00  0.00    +0.231 C 
ATOM     37  O6  UNL     1      11.719  16.767   8.933  1.00  0.00    -0.274 OA
ATOM     38  N3  UNL     1      11.564  14.704   9.922  1.00  0.00    -0.309 N 
ATOM     39  H38 UNL     1      11.218  14.195  10.732  1.00  0.00    +0.149 HD
BRANCH  38  40
ATOM     40  C27 UNL     1      12.416  13.955   8.984  1.00  0.00    +0.026 C 
ATOM     41  C28 UNL     1      11.606  13.512   7.755  1.00  0.00    +0.031 C 
ATOM     42  C29 UNL     1      13.546  14.890   8.513  1.00  0.00    +0.031 C 
ATOM     43  C30 UNL     1      13.060  12.731   9.659  1.00  0.00    +0.031 C 
ENDBRANCH  38  40
ENDBRANCH  35  36
ENDBRANCH  25  26
ENDBRANCH   1  25
TORSDOF 11
ENDMDL
MODEL 6
REMARK VINA RESULT:    -8.386      2.758      5.941
REMARK INTER + INTRA:         -15.057
REMARK INTER:                 -14.951
REMARK INTRA:                  -0.105
REMARK UNBOUND:                -1.522
REMARK  Name = 
REMARK  15 active torsions:
REMARK  status: ('A' for Active; 'I' for Inactive)
REMARK    1  A    between atoms: C1_1  and  C2_2
REMARK    2  A    between atoms: C5_8  and  O3_9
REMARK    3  A    between atoms: O3_9  and  C6_10
REMARK    4  A    between atoms: N1_12  and  C7_13
REMARK    5  A    between atoms: C7_13  and  C8_14
REMARK    6  A    between atoms: C7_13  and  C15_21
REMARK    7  A    between atoms: C8_14  and  C9_15
REMARK    8  A    between atoms: C15_21  and  O5_22
REMARK    9  A    between atoms: C15_21  and  C16_23
REMARK   10  A    between atoms: C16_23  and  N2_24
REMARK   11  A    between atoms: C25_33  and  C26_34
REMARK   12  A    between atoms: N3_36  and  C27_37
REMARK   13  A    between atoms: C27_37  and  C28_38
REMARK   14  A    between atoms: C27_37  and  C29_39
REMARK   15  A    between atoms: C27_37  and  C30_40
REMARK                            x       y       z     vdW  Elec       q    Type
REMARK                         _______ _______ _______ _____ _____    ______ ____
ROOT
ATOM      1  C15 UNL     1       8.580  17.557  10.900  1.00  0.00    +0.149 C 
ENDROOT
BRANCH   1   2
ATOM      2  O5  UNL     1       9.778  18.343  11.081  1.00  0.00    -0.389 OA
ATOM      3  H20 UNL     1      10.149  18.576  10.205  1.00  0.00    +0.210 HD
ENDBRANCH   1   2
BRANCH   1   4
ATOM      4  C7  UNL     1       8.939  16.069  10.607  1.00  0.00    +0.110 C 
BRANCH   4   7
ATOM      5  C6  UNL     1       8.808  14.848   8.455  1.00  0.00    +0.401 C 
ATOM      6  O4  UNL     1       8.004  14.016   8.846  1.00  0.00    -0.226 OA
ATOM      7  N1  UNL     1       9.328  15.847   9.214  1.00  0.00    -0.275 N 
ATOM      8  H10 UNL     1       9.843  16.565   8.720  1.00  0.00    +0.152 HD
BRANCH   5   9
ATOM      9  O3  UNL     1       9.276  14.951   7.184  1.00  0.00    -0.445 OA
BRANCH   9  17
ATOM     10  C1  UNL     1       9.403  16.502   4.729  1.00  0.00    +0.013 C 
ATOM     11  C2  UNL     1      10.637  16.071   5.506  1.00  0.00    +0.049 C 
ATOM     12  C3  UNL     1      11.198  14.745   4.996  1.00  0.00    +0.173 C 
ATOM     13  S1  UNL     1      12.306  14.208   6.289  1.00  0.00    -0.027 S 
ATOM     14  O1  UNL     1      12.039  12.815   6.585  1.00  0.00    -0.174 OA
ATOM     15  O2  UNL     1      13.638  14.682   5.963  1.00  0.00    -0.174 OA
ATOM     16  C4  UNL     1      11.648  15.239   7.592  1.00  0.00    +0.210 C 
ATOM     17  C5  UNL     1      10.380  15.857   7.010  1.00  0.00    +0.203 C 
ENDBRANCH   9  17
ENDBRANCH   5   9
ENDBRANCH   4   7
BRANCH   4  18
ATOM     18  C8  UNL     1       9.982  15.488  11.583  1.00  0.00    +0.060 C 
BRANCH  18  19
ATOM     19  C9  UNL     1       9.572  15.658  13.032  1.00  0.00    -0.046 A 
ATOM     20  C10 UNL     1       8.365  15.116  13.494  1.00  0.00    +0.004 A 
ATOM     21  C11 UNL     1       8.009  15.227  14.839  1.00  0.00    +0.000 A 
ATOM     22  C12 UNL     1       8.857  15.879  15.734  1.00  0.00    +0.000 A 
ATOM     23  C13 UNL     1      10.056  16.428  15.284  1.00  0.00    +0.000 A 
ATOM     24  C14 UNL     1      10.412  16.322  13.938  1.00  0.00    +0.004 A 
ENDBRANCH  18  19
ENDBRANCH   4  18
ENDBRANCH   1   4
BRANCH   1  25
ATOM     25  C16 UNL     1       7.698  17.822  12.148  1.00  0.00    +0.118 C 
BRANCH  25  26
ATOM     26  N2  UNL     1       6.726  18.931  12.035  1.00  0.00    -0.289 NA
ATOM     27  C17 UNL     1       6.611  19.408  10.638  1.00  0.00    +0.089 C 
ATOM     28  C18 UNL     1       5.204  19.327  10.004  1.00  0.00    +0.006 C 
ATOM     29  C19 UNL     1       5.239  19.637   8.498  1.00  0.00    +0.005 C 
ATOM     30  C20 UNL     1       5.788  18.491   7.648  1.00  0.00    +0.000 C 
ATOM     31  C21 UNL     1       5.063  17.184   7.939  1.00  0.00    +0.000 C 
ATOM     32  C22 UNL     1       5.098  16.841   9.424  1.00  0.00    +0.004 C 
ATOM     33  C23 UNL     1       4.524  17.977  10.289  1.00  0.00    -0.005 C 
ATOM     34  C24 UNL     1       4.587  17.615  11.786  1.00  0.00    +0.032 C 
ATOM     35  C25 UNL     1       5.382  18.639  12.608  1.00  0.00    +0.143 C 
BRANCH  35  36
ATOM     36  C26 UNL     1       5.387  18.242  14.107  1.00  0.00    +0.231 C 
ATOM     37  O6  UNL     1       6.373  18.331  14.834  1.00  0.00    -0.274 OA
ATOM     38  N3  UNL     1       4.187  17.706  14.544  1.00  0.00    -0.309 N 
ATOM     39  H38 UNL     1       3.405  17.694  13.892  1.00  0.00    +0.149 HD
BRANCH  38  40
ATOM     40  C27 UNL     1       3.904  17.274  15.922  1.00  0.00    +0.026 C 
ATOM     41  C28 UNL     1       3.605  18.486  16.817  1.00  0.00    +0.031 C 
ATOM     42  C29 UNL     1       2.659  16.368  15.893  1.00  0.00    +0.031 C 
ATOM     43  C30 UNL     1       5.071  16.460  16.510  1.00  0.00    +0.031 C 
ENDBRANCH  38  40
ENDBRANCH  35  36
ENDBRANCH  25  26
ENDBRANCH   1  25
TORSDOF 11
ENDMDL
MODEL 7
REMARK VINA RESULT:    -8.380      2.890      8.541
REMARK INTER + INTRA:         -15.046
REMARK INTER:                 -13.888
REMARK INTRA:                  -1.157
REMARK UNBOUND:                -1.522
REMARK  Name = 
REMARK  15 active torsions:
REMARK  status: ('A' for Active; 'I' for Inactive)
REMARK    1  A    between atoms: C1_1  and  C2_2
REMARK    2  A    between atoms: C5_8  and  O3_9
REMARK    3  A    between atoms: O3_9  and  C6_10
REMARK    4  A    between atoms: N1_12  and  C7_13
REMARK    5  A    between atoms: C7_13  and  C8_14
REMARK    6  A    between atoms: C7_13  and  C15_21
REMARK    7  A    between atoms: C8_14  and  C9_15
REMARK    8  A    between atoms: C15_21  and  O5_22
REMARK    9  A    between atoms: C15_21  and  C16_23
REMARK   10  A    between atoms: C16_23  and  N2_24
REMARK   11  A    between atoms: C25_33  and  C26_34
REMARK   12  A    between atoms: N3_36  and  C27_37
REMARK   13  A    between atoms: C27_37  and  C28_38
REMARK   14  A    between atoms: C27_37  and  C29_39
REMARK   15  A    between atoms: C27_37  and  C30_40
REMARK                            x       y       z     vdW  Elec       q    Type
REMARK                         _______ _______ _______ _____ _____    ______ ____
ROOT
ATOM      1  C15 UNL     1       9.362  16.728   6.531  1.00  0.00    +0.149 C 
ENDROOT
BRANCH   1   2
ATOM      2  O5  UNL     1       9.064  17.347   5.260  1.00  0.00    -0.389 OA
ATOM      3  H20 UNL     1       8.188  17.038   4.946  1.00  0.00    +0.210 HD
ENDBRANCH   1   2
BRANCH   1   4
ATOM      4  C7  UNL     1       8.047  16.367   7.287  1.00  0.00    +0.110 C 
BRANCH   4   7
ATOM      5  C6  UNL     1       8.228  15.016   9.355  1.00  0.00    +0.401 C 
ATOM      6  O4  UNL     1       8.006  13.945   8.810  1.00  0.00    -0.226 OA
ATOM      7  N1  UNL     1       8.249  16.220   8.729  1.00  0.00    -0.275 N 
ATOM      8  H10 UNL     1       8.618  16.997   9.263  1.00  0.00    +0.152 HD
BRANCH   5   9
ATOM      9  O3  UNL     1       8.545  15.178  10.666  1.00  0.00    -0.445 OA
BRANCH   9  17
ATOM     10  C1  UNL     1      11.025  16.692  10.766  1.00  0.00    +0.013 C 
ATOM     11  C2  UNL     1       9.867  16.927  11.724  1.00  0.00    +0.049 C 
ATOM     12  C3  UNL     1      10.015  16.116  13.009  1.00  0.00    +0.173 C 
ATOM     13  S1  UNL     1       8.393  16.168  13.753  1.00  0.00    -0.027 S 
ATOM     14  O1  UNL     1       8.017  14.826  14.152  1.00  0.00    -0.174 OA
ATOM     15  O2  UNL     1       8.362  17.282  14.682  1.00  0.00    -0.174 OA
ATOM     16  C4  UNL     1       7.486  16.637  12.286  1.00  0.00    +0.210 C 
ATOM     17  C5  UNL     1       8.494  16.534  11.145  1.00  0.00    +0.203 C 
ENDBRANCH   9  17
ENDBRANCH   5   9
ENDBRANCH   4   7
BRANCH   4  18
ATOM     18  C8  UNL     1       6.880  17.326   6.977  1.00  0.00    +0.060 C 
BRANCH  18  19
ATOM     19  C9  UNL     1       6.281  17.930   8.231  1.00  0.00    -0.046 A 
ATOM     20  C10 UNL     1       6.711  19.183   8.688  1.00  0.00    +0.004 A 
ATOM     21  C11 UNL     1       6.126  19.764   9.814  1.00  0.00    +0.000 A 
ATOM     22  C12 UNL     1       5.104  19.098  10.492  1.00  0.00    +0.000 A 
ATOM     23  C13 UNL     1       4.674  17.848  10.051  1.00  0.00    +0.000 A 
ATOM     24  C14 UNL     1       5.262  17.263   8.928  1.00  0.00    +0.004 A 
ENDBRANCH  18  19
ENDBRANCH   4  18
ENDBRANCH   1   4
BRANCH   1  25
ATOM     25  C16 UNL     1      10.326  15.552   6.222  1.00  0.00    +0.118 C 
BRANCH  25  26
ATOM     26  N2  UNL     1      11.740  15.915   5.985  1.00  0.00    -0.289 NA
ATOM     27  C17 UNL     1      12.558  15.725   7.205  1.00  0.00    +0.089 C 
ATOM     28  C18 UNL     1      13.744  14.743   7.084  1.00  0.00    +0.006 C 
ATOM     29  C19 UNL     1      14.387  14.454   8.451  1.00  0.00    +0.005 C 
ATOM     30  C20 UNL     1      13.568  13.503   9.325  1.00  0.00    +0.000 C 
ATOM     31  C21 UNL     1      13.224  12.220   8.581  1.00  0.00    +0.000 C 
ATOM     32  C22 UNL     1      12.517  12.509   7.261  1.00  0.00    +0.004 C 
ATOM     33  C23 UNL     1      13.342  13.445   6.362  1.00  0.00    -0.005 C 
ATOM     34  C24 UNL     1      12.599  13.737   5.043  1.00  0.00    +0.032 C 
ATOM     35  C25 UNL     1      12.368  15.237   4.816  1.00  0.00    +0.143 C 
BRANCH  35  36
ATOM     36  C26 UNL     1      11.645  15.474   3.464  1.00  0.00    +0.231 C 
ATOM     37  O6  UNL     1      10.845  16.384   3.267  1.00  0.00    -0.274 OA
ATOM     38  N3  UNL     1      11.934  14.517   2.506  1.00  0.00    -0.309 N 
ATOM     39  H38 UNL     1      12.632  13.812   2.732  1.00  0.00    +0.149 HD
BRANCH  38  40
ATOM     40  C27 UNL     1      11.412  14.513   1.129  1.00  0.00    +0.026 C 
ATOM     41  C28 UNL     1      10.123  15.343   1.038  1.00  0.00    +0.031 C 
ATOM     42  C29 UNL     1      12.473  15.156   0.215  1.00  0.00    +0.031 C 
ATOM     43  C30 UNL     1      11.155  13.082   0.626  1.00  0.00    +0.031 C 
ENDBRANCH  38  40
ENDBRANCH  35  36
ENDBRANCH  25  26
ENDBRANCH   1  25
TORSDOF 11
ENDMDL
MODEL 8
REMARK VINA RESULT:    -8.338      1.879      4.554
REMARK INTER + INTRA:         -14.979
REMARK INTER:                 -14.120
REMARK INTRA:                  -0.858
REMARK UNBOUND:                -1.522
REMARK  Name = 
REMARK  15 active torsions:
REMARK  status: ('A' for Active; 'I' for Inactive)
REMARK    1  A    between atoms: C1_1  and  C2_2
REMARK    2  A    between atoms: C5_8  and  O3_9
REMARK    3  A    between atoms: O3_9  and  C6_10
REMARK    4  A    between atoms: N1_12  and  C7_13
REMARK    5  A    between atoms: C7_13  and  C8_14
REMARK    6  A    between atoms: C7_13  and  C15_21
REMARK    7  A    between atoms: C8_14  and  C9_15
REMARK    8  A    between atoms: C15_21  and  O5_22
REMARK    9  A    between atoms: C15_21  and  C16_23
REMARK   10  A    between atoms: C16_23  and  N2_24
REMARK   11  A    between atoms: C25_33  and  C26_34
REMARK   12  A    between atoms: N3_36  and  C27_37
REMARK   13  A    between atoms: C27_37  and  C28_38
REMARK   14  A    between atoms: C27_37  and  C29_39
REMARK   15  A    between atoms: C27_37  and  C30_40
REMARK                            x       y       z     vdW  Elec       q    Type
REMARK                         _______ _______ _______ _____ _____    ______ ____
ROOT
ATOM      1  C15 UNL     1       9.961  16.183   9.367  1.00  0.00    +0.149 C 
ENDROOT
BRANCH   1   2
ATOM      2  O5  UNL     1      11.025  16.516  10.286  1.00  0.00    -0.389 OA
ATOM      3  H20 UNL     1      11.768  16.920   9.789  1.00  0.00    +0.210 HD
ENDBRANCH   1   2
BRANCH   1   4
ATOM      4  C7  UNL     1      10.130  14.728   8.836  1.00  0.00    +0.110 C 
BRANCH   4   7
ATOM      5  C6  UNL     1       9.149  15.050   6.584  1.00  0.00    +0.401 C 
ATOM      6  O4  UNL     1       8.067  15.448   6.989  1.00  0.00    -0.226 OA
ATOM      7  N1  UNL     1      10.183  14.665   7.375  1.00  0.00    -0.275 N 
ATOM      8  H10 UNL     1      11.073  14.527   6.914  1.00  0.00    +0.152 HD
BRANCH   5   9
ATOM      9  O3  UNL     1       9.520  14.977   5.280  1.00  0.00    -0.445 OA
BRANCH   9  17
ATOM     10  C1  UNL     1       8.480  16.278   2.898  1.00  0.00    +0.013 C 
ATOM     11  C2  UNL     1       9.956  16.270   3.265  1.00  0.00    +0.049 C 
ATOM     12  C3  UNL     1      10.700  15.108   2.612  1.00  0.00    +0.173 C 
ATOM     13  S1  UNL     1      12.241  15.011   3.510  1.00  0.00    -0.027 S 
ATOM     14  O1  UNL     1      12.482  13.630   3.877  1.00  0.00    -0.174 OA
ATOM     15  O2  UNL     1      13.227  15.799   2.795  1.00  0.00    -0.174 OA
ATOM     16  C4  UNL     1      11.722  15.935   4.949  1.00  0.00    +0.210 C 
ATOM     17  C5  UNL     1      10.218  16.130   4.777  1.00  0.00    +0.203 C 
ENDBRANCH   9  17
ENDBRANCH   5   9
ENDBRANCH   4   7
BRANCH   4  18
ATOM     18  C8  UNL     1      11.315  13.977   9.476  1.00  0.00    +0.060 C 
BRANCH  18  19
ATOM     19  C9  UNL     1      12.442  13.734   8.492  1.00  0.00    -0.046 A 
ATOM     20  C10 UNL     1      12.565  12.496   7.847  1.00  0.00    +0.004 A 
ATOM     21  C11 UNL     1      13.571  12.287   6.903  1.00  0.00    +0.000 A 
ATOM     22  C12 UNL     1      14.463  13.314   6.594  1.00  0.00    +0.000 A 
ATOM     23  C13 UNL     1      14.355  14.547   7.234  1.00  0.00    +0.000 A 
ATOM     24  C14 UNL     1      13.352  14.757   8.182  1.00  0.00    +0.004 A 
ENDBRANCH  18  19
ENDBRANCH   4  18
ENDBRANCH   1   4
BRANCH   1  25
ATOM     25  C16 UNL     1       8.636  16.497  10.112  1.00  0.00    +0.118 C 
BRANCH  25  26
ATOM     26  N2  UNL     1       8.441  17.903  10.529  1.00  0.00    -0.289 NA
ATOM     27  C17 UNL     1       7.785  18.696   9.463  1.00  0.00    +0.089 C 
ATOM     28  C18 UNL     1       6.441  19.358   9.837  1.00  0.00    +0.006 C 
ATOM     29  C19 UNL     1       5.744  19.967   8.609  1.00  0.00    +0.005 C 
ATOM     30  C20 UNL     1       5.085  18.929   7.700  1.00  0.00    +0.000 C 
ATOM     31  C21 UNL     1       4.152  18.015   8.482  1.00  0.00    +0.000 C 
ATOM     32  C22 UNL     1       4.868  17.353   9.654  1.00  0.00    +0.004 C 
ATOM     33  C23 UNL     1       5.514  18.389  10.591  1.00  0.00    -0.005 C 
ATOM     34  C24 UNL     1       6.247  17.695  11.756  1.00  0.00    +0.032 C 
ATOM     35  C25 UNL     1       7.732  18.073  11.828  1.00  0.00    +0.143 C 
BRANCH  35  36
ATOM     36  C26 UNL     1       8.411  17.372  13.034  1.00  0.00    +0.231 C 
ATOM     37  O6  UNL     1       9.582  17.000  13.038  1.00  0.00    -0.274 OA
ATOM     38  N3  UNL     1       7.552  17.137  14.094  1.00  0.00    -0.309 N 
ATOM     39  H38 UNL     1       6.605  17.503  14.030  1.00  0.00    +0.149 HD
BRANCH  38  40
ATOM     40  C27 UNL     1       7.935  16.516  15.372  1.00  0.00    +0.026 C 
ATOM     41  C28 UNL     1       6.717  16.392  16.301  1.00  0.00    +0.031 C 
ATOM     42  C29 UNL     1       8.469  15.102  15.076  1.00  0.00    +0.031 C 
ATOM     43  C30 UNL     1       9.053  17.309  16.073  1.00  0.00    +0.031 C 
ENDBRANCH  38  40
ENDBRANCH  35  36
ENDBRANCH  25  26
ENDBRANCH   1  25
TORSDOF 11
ENDMDL
MODEL 9
REMARK VINA RESULT:    -8.266      3.090      6.386
REMARK INTER + INTRA:         -14.862
REMARK INTER:                 -14.381
REMARK INTRA:                  -0.481
REMARK UNBOUND:                -1.522
REMARK  Name = 
REMARK  15 active torsions:
REMARK  status: ('A' for Active; 'I' for Inactive)
REMARK    1  A    between atoms: C1_1  and  C2_2
REMARK    2  A    between atoms: C5_8  and  O3_9
REMARK    3  A    between atoms: O3_9  and  C6_10
REMARK    4  A    between atoms: N1_12  and  C7_13
REMARK    5  A    between atoms: C7_13  and  C8_14
REMARK    6  A    between atoms: C7_13  and  C15_21
REMARK    7  A    between atoms: C8_14  and  C9_15
REMARK    8  A    between atoms: C15_21  and  O5_22
REMARK    9  A    between atoms: C15_21  and  C16_23
REMARK   10  A    between atoms: C16_23  and  N2_24
REMARK   11  A    between atoms: C25_33  and  C26_34
REMARK   12  A    between atoms: N3_36  and  C27_37
REMARK   13  A    between atoms: C27_37  and  C28_38
REMARK   14  A    between atoms: C27_37  and  C29_39
REMARK   15  A    between atoms: C27_37  and  C30_40
REMARK                            x       y       z     vdW  Elec       q    Type
REMARK                         _______ _______ _______ _____ _____    ______ ____
ROOT
ATOM      1  C15 UNL     1       7.687  17.379  11.787  1.00  0.00    +0.149 C 
ENDROOT
BRANCH   1   2
ATOM      2  O5  UNL     1       8.969  17.947  12.136  1.00  0.00    -0.389 OA
ATOM      3  H20 UNL     1       9.332  18.428  11.363  1.00  0.00    +0.210 HD
ENDBRANCH   1   2
BRANCH   1   4
ATOM      4  C7  UNL     1       7.796  15.832  11.633  1.00  0.00    +0.110 C 
BRANCH   4   7
ATOM      5  C6  UNL     1       9.001  14.700   9.789  1.00  0.00    +0.401 C 
ATOM      6  O4  UNL     1       7.995  14.289   9.232  1.00  0.00    -0.226 OA
ATOM      7  N1  UNL     1       9.017  15.420  10.940  1.00  0.00    -0.275 N 
ATOM      8  H10 UNL     1       9.901  15.843  11.192  1.00  0.00    +0.152 HD
BRANCH   5   9
ATOM      9  O3  UNL     1      10.270  14.555   9.325  1.00  0.00    -0.445 OA
BRANCH   9  17
ATOM     10  C1  UNL     1      12.906  14.171   8.163  1.00  0.00    +0.013 C 
ATOM     11  C2  UNL     1      11.938  15.244   7.693  1.00  0.00    +0.049 C 
ATOM     12  C3  UNL     1      12.168  16.574   8.407  1.00  0.00    +0.173 C 
ATOM     13  S1  UNL     1      10.691  17.518   8.069  1.00  0.00    -0.027 S 
ATOM     14  O1  UNL     1      10.212  18.098   9.309  1.00  0.00    -0.174 OA
ATOM     15  O2  UNL     1      10.933  18.325   6.889  1.00  0.00    -0.174 OA
ATOM     16  C4  UNL     1       9.647  16.144   7.604  1.00  0.00    +0.210 C 
ATOM     17  C5  UNL     1      10.458  14.896   7.940  1.00  0.00    +0.203 C 
ENDBRANCH   9  17
ENDBRANCH   5   9
ENDBRANCH   4   7
BRANCH   4  18
ATOM     18  C8  UNL     1       7.619  15.071  12.963  1.00  0.00    +0.060 C 
BRANCH  18  19
ATOM     19  C9  UNL     1       8.514  15.614  14.060  1.00  0.00    -0.046 A 
ATOM     20  C10 UNL     1       7.963  16.038  15.276  1.00  0.00    +0.004 A 
ATOM     21  C11 UNL     1       8.788  16.491  16.307  1.00  0.00    +0.000 A 
ATOM     22  C12 UNL     1      10.172  16.521  16.130  1.00  0.00    +0.000 A 
ATOM     23  C13 UNL     1      10.730  16.109  14.922  1.00  0.00    +0.000 A 
ATOM     24  C14 UNL     1       9.905  15.661  13.889  1.00  0.00    +0.004 A 
ENDBRANCH  18  19
ENDBRANCH   4  18
ENDBRANCH   1   4
BRANCH   1  25
ATOM     25  C16 UNL     1       6.682  17.899  12.849  1.00  0.00    +0.118 C 
BRANCH  25  26
ATOM     26  N2  UNL     1       5.772  18.979  12.411  1.00  0.00    -0.289 NA
ATOM     27  C17 UNL     1       6.161  19.509  11.085  1.00  0.00    +0.089 C 
ATOM     28  C18 UNL     1       5.095  19.408   9.971  1.00  0.00    +0.006 C 
ATOM     29  C19 UNL     1       5.671  19.780   8.594  1.00  0.00    +0.005 C 
ATOM     30  C20 UNL     1       6.548  18.688   7.981  1.00  0.00    +0.000 C 
ATOM     31  C21 UNL     1       5.828  17.348   7.946  1.00  0.00    +0.000 C 
ATOM     32  C22 UNL     1       5.325  16.945   9.329  1.00  0.00    +0.004 C 
ATOM     33  C23 UNL     1       4.420  18.026   9.947  1.00  0.00    -0.005 C 
ATOM     34  C24 UNL     1       3.941  17.604  11.351  1.00  0.00    +0.032 C 
ATOM     35  C25 UNL     1       4.326  18.620  12.435  1.00  0.00    +0.143 C 
BRANCH  35  36
ATOM     36  C26 UNL     1       3.793  18.161  13.818  1.00  0.00    +0.231 C 
ATOM     37  O6  UNL     1       4.296  18.495  14.888  1.00  0.00    -0.274 OA
ATOM     38  N3  UNL     1       2.731  17.277  13.738  1.00  0.00    -0.309 N 
ATOM     39  H38 UNL     1       2.349  17.073  12.817  1.00  0.00    +0.149 HD
BRANCH  38  40
ATOM     40  C27 UNL     1       2.015  16.708  14.891  1.00  0.00    +0.026 C 
ATOM     41  C28 UNL     1       1.023  17.730  15.469  1.00  0.00    +0.031 C 
ATOM     42  C29 UNL     1       1.223  15.480  14.404  1.00  0.00    +0.031 C 
ATOM     43  C30 UNL     1       2.989  16.241  15.988  1.00  0.00    +0.031 C 
ENDBRANCH  38  40
ENDBRANCH  35  36
ENDBRANCH  25  26
ENDBRANCH   1  25
TORSDOF 11
ENDMDL
