MODEL 1
REMARK VINA RESULT:    -8.833      0.000      0.000
REMARK INTER + INTRA:         -12.399
REMARK INTER:                 -11.673
REMARK INTRA:                  -0.726
REMARK UNBOUND:                -0.726
REMARK  Name = 
REMARK  9 active torsions:
REMARK  status: ('A' for Active; 'I' for Inactive)
REMARK    1  A    between atoms: C1_1  and  O1_2
REMARK    2  A    between atoms: O1_2  and  C2_3
REMARK    3  A    between atoms: C7_8  and  C8_9
REMARK    4  A    between atoms: C10_11  and  O2_12
REMARK    5  A    between atoms: C11_13  and  S1_14
REMARK    6  A    between atoms: S1_14  and  C12_15
REMARK    7  A    between atoms: C17_20  and  C18_21
REMARK    8  A    between atoms: C18_21  and  C19_22
REMARK    9  A    between atoms: C18_21  and  C20_23
REMARK                            x       y       z     vdW  Elec       q    Type
REMARK                         _______ _______ _______ _____ _____    ______ ____
ROOT
ATOM      1  C8  UNL     1       9.276  16.797  11.874  1.00  0.00    +0.146 A 
ATOM      2  C9  UNL     1       9.879  17.798  11.223  1.00  0.00    +0.093 A 
ATOM      3  C10 UNL     1       9.924  17.781   9.786  1.00  0.00    +0.141 A 
ATOM      4  C11 UNL     1       9.380  16.773   9.080  1.00  0.00    +0.139 A 
ATOM      5  C21 UNL     1       8.621  15.706   9.809  1.00  0.00    +0.355 A 
ATOM      6  O3  UNL     1       8.003  14.813   9.235  1.00  0.00    -0.244 OA
ATOM      7  O4  UNL     1       8.634  15.753  11.178  1.00  0.00    -0.421 OA
ENDROOT
BRANCH   1  13
ATOM      8  C2  UNL     1       8.023  17.129  14.059  1.00  0.00    +0.131 A 
ATOM      9  C3  UNL     1       8.003  17.012  15.455  1.00  0.00    +0.046 A 
ATOM     10  C4  UNL     1       9.110  16.512  16.144  1.00  0.00    +0.004 A 
ATOM     11  C5  UNL     1      10.249  16.125  15.447  1.00  0.00    +0.001 A 
ATOM     12  C6  UNL     1      10.279  16.228  14.057  1.00  0.00    +0.015 A 
ATOM     13  C7  UNL     1       9.169  16.717  13.343  1.00  0.00    +0.059 A 
BRANCH   8  15
ATOM     14  C1  UNL     1       6.556  18.955  13.595  1.00  0.00    +0.277 C 
ATOM     15  O1  UNL     1       6.977  17.625  13.320  1.00  0.00    -0.494 OA
ENDBRANCH   8  15
ENDBRANCH   1  13
BRANCH   3  16
ATOM     16  O2  UNL     1      10.544  18.866   9.201  1.00  0.00    -0.505 OA
ATOM     17  H9  UNL     1      10.760  18.661   8.277  1.00  0.00    +0.292 HD
ENDBRANCH   3  16
BRANCH   4  18
ATOM     18  S1  UNL     1       9.374  16.671   7.341  1.00  0.00    -0.079 S 
BRANCH  18  19
ATOM     19  C12 UNL     1      10.932  15.844   7.016  1.00  0.00    +0.016 A 
ATOM     20  C13 UNL     1      11.760  15.676   8.146  1.00  0.00    +0.015 A 
ATOM     21  C14 UNL     1      13.003  15.049   8.065  1.00  0.00    +0.001 A 
ATOM     22  C15 UNL     1      13.453  14.588   6.841  1.00  0.00    +0.000 A 
ATOM     23  C16 UNL     1      12.669  14.779   5.703  1.00  0.00    +0.005 A 
ATOM     24  C17 UNL     1      11.410  15.429   5.753  1.00  0.00    -0.031 A 
BRANCH  24  25
ATOM     25  C18 UNL     1      10.720  15.602   4.402  1.00  0.00    +0.014 C 
ATOM     26  C19 UNL     1      11.719  15.526   3.248  1.00  0.00    +0.012 C 
ATOM     27  C20 UNL     1       9.481  14.741   4.149  1.00  0.00    +0.012 C 
ENDBRANCH  24  25
ENDBRANCH  18  19
ENDBRANCH   4  18
TORSDOF 6
ENDMDL
MODEL 2
REMARK VINA RESULT:    -8.555      2.169      8.484
REMARK INTER + INTRA:         -12.031
REMARK INTER:                 -11.242
REMARK INTRA:                  -0.790
REMARK UNBOUND:                -0.726
REMARK  Name = 
REMARK  9 active torsions:
REMARK  status: ('A' for Active; 'I' for Inactive)
REMARK    1  A    between atoms: C1_1  and  O1_2
REMARK    2  A    between atoms: O1_2  and  C2_3
REMARK    3  A    between atoms: C7_8  and  C8_9
REMARK    4  A    between atoms: C10_11  and  O2_12
REMARK    5  A    between atoms: C11_13  and  S1_14
REMARK    6  A    between atoms: S1_14  and  C12_15
REMARK    7  A    between atoms: C17_20  and  C18_21
REMARK    8  A    between atoms: C18_21  and  C19_22
REMARK    9  A    between atoms: C18_21  and  C20_23
REMARK                            x       y       z     vdW  Elec       q    Type
REMARK                         _______ _______ _______ _____ _____    ______ ____
ROOT
ATOM      1  C8  UNL     1      10.366  16.412   6.147  1.00  0.00    +0.146 A 
ATOM      2  C9  UNL     1      10.672  17.560   6.761  1.00  0.00    +0.093 A 
ATOM      3  C10 UNL     1      10.639  17.625   8.196  1.00  0.00    +0.141 A 
ATOM      4  C11 UNL     1      10.295  16.555   8.937  1.00  0.00    +0.139 A 
ATOM      5  C21 UNL     1      10.049  15.247   8.250  1.00  0.00    +0.355 A 
ATOM      6  O3  UNL     1       9.839  14.200   8.858  1.00  0.00    -0.244 OA
ATOM      7  O4  UNL     1      10.064  15.247   6.880  1.00  0.00    -0.421 OA
ENDROOT
BRANCH   1  13
ATOM      8  C2  UNL     1      11.485  15.738   3.968  1.00  0.00    +0.131 A 
ATOM      9  C3  UNL     1      11.403  15.595   2.576  1.00  0.00    +0.046 A 
ATOM     10  C4  UNL     1      10.242  15.957   1.889  1.00  0.00    +0.004 A 
ATOM     11  C5  UNL     1       9.151  16.467   2.584  1.00  0.00    +0.001 A 
ATOM     12  C6  UNL     1       9.216  16.606   3.970  1.00  0.00    +0.015 A 
ATOM     13  C7  UNL     1      10.372  16.235   4.682  1.00  0.00    +0.059 A 
BRANCH   8  15
ATOM     14  C1  UNL     1      12.962  14.042   4.770  1.00  0.00    +0.277 C 
ATOM     15  O1  UNL     1      12.598  15.416   4.704  1.00  0.00    -0.494 OA
ENDBRANCH   8  15
ENDBRANCH   1  13
BRANCH   3  16
ATOM     16  O2  UNL     1      10.994  18.841   8.742  1.00  0.00    -0.505 OA
ATOM     17  H9  UNL     1      10.363  19.524   8.460  1.00  0.00    +0.292 HD
ENDBRANCH   3  16
BRANCH   4  18
ATOM     18  S1  UNL     1      10.238  16.533  10.678  1.00  0.00    -0.079 S 
BRANCH  18  19
ATOM     19  C12 UNL     1       8.538  17.009  10.996  1.00  0.00    +0.016 A 
ATOM     20  C13 UNL     1       7.823  17.444   9.861  1.00  0.00    +0.015 A 
ATOM     21  C14 UNL     1       6.490  17.845   9.936  1.00  0.00    +0.001 A 
ATOM     22  C15 UNL     1       5.845  17.835  11.160  1.00  0.00    +0.000 A 
ATOM     23  C16 UNL     1       6.544  17.447  12.302  1.00  0.00    +0.005 A 
ATOM     24  C17 UNL     1       7.905  17.052  12.258  1.00  0.00    -0.031 A 
BRANCH  24  25
ATOM     25  C18 UNL     1       8.523  16.718  13.614  1.00  0.00    +0.014 C 
ATOM     26  C19 UNL     1       8.077  17.705  14.693  1.00  0.00    +0.012 C 
ATOM     27  C20 UNL     1       8.412  15.265  14.080  1.00  0.00    +0.012 C 
ENDBRANCH  24  25
ENDBRANCH  18  19
ENDBRANCH   4  18
TORSDOF 6
ENDMDL
MODEL 3
REMARK VINA RESULT:    -8.280      1.627      7.840
REMARK INTER + INTRA:         -11.667
REMARK INTER:                 -11.021
REMARK INTRA:                  -0.646
REMARK UNBOUND:                -0.726
REMARK  Name = 
REMARK  9 active torsions:
REMARK  status: ('A' for Active; 'I' for Inactive)
REMARK    1  A    between atoms: C1_1  and  O1_2
REMARK    2  A    between atoms: O1_2  and  C2_3
REMARK    3  A    between atoms: C7_8  and  C8_9
REMARK    4  A    between atoms: C10_11  and  O2_12
REMARK    5  A    between atoms: C11_13  and  S1_14
REMARK    6  A    between atoms: S1_14  and  C12_15
REMARK    7  A    between atoms: C17_20  and  C18_21
REMARK    8  A    between atoms: C18_21  and  C19_22
REMARK    9  A    between atoms: C18_21  and  C20_23
REMARK                            x       y       z     vdW  Elec       q    Type
REMARK                         _______ _______ _______ _____ _____    ______ ____
ROOT
ATOM      1  C8  UNL     1      10.765  16.154   7.580  1.00  0.00    +0.146 A 
ATOM      2  C9  UNL     1      10.961  17.374   8.091  1.00  0.00    +0.093 A 
ATOM      3  C10 UNL     1      10.056  17.877   9.088  1.00  0.00    +0.141 A 
ATOM      4  C11 UNL     1       9.007  17.148   9.512  1.00  0.00    +0.139 A 
ATOM      5  C21 UNL     1       8.849  15.746   9.009  1.00  0.00    +0.355 A 
ATOM      6  O3  UNL     1       7.986  14.978   9.427  1.00  0.00    -0.244 OA
ATOM      7  O4  UNL     1       9.721  15.327   8.038  1.00  0.00    -0.421 OA
ENDROOT
BRANCH   1  13
ATOM      8  C2  UNL     1      12.669  14.630   6.866  1.00  0.00    +0.131 A 
ATOM      9  C3  UNL     1      13.443  14.089   5.831  1.00  0.00    +0.046 A 
ATOM     10  C4  UNL     1      13.215  14.457   4.503  1.00  0.00    +0.004 A 
ATOM     11  C5  UNL     1      12.212  15.368   4.194  1.00  0.00    +0.001 A 
ATOM     12  C6  UNL     1      11.428  15.907   5.214  1.00  0.00    +0.015 A 
ATOM     13  C7  UNL     1      11.634  15.541   6.556  1.00  0.00    +0.059 A 
BRANCH   8  15
ATOM     14  C1  UNL     1      12.513  13.007   8.611  1.00  0.00    +0.277 C 
ATOM     15  O1  UNL     1      12.848  14.325   8.192  1.00  0.00    -0.494 OA
ENDBRANCH   8  15
ENDBRANCH   1  13
BRANCH   3  16
ATOM     16  O2  UNL     1      10.351  19.133   9.575  1.00  0.00    -0.505 OA
ATOM     17  H9  UNL     1      10.966  19.059  10.323  1.00  0.00    +0.292 HD
ENDBRANCH   3  16
BRANCH   4  18
ATOM     18  S1  UNL     1       7.866  17.665  10.722  1.00  0.00    -0.079 S 
BRANCH  18  19
ATOM     19  C12 UNL     1       8.693  17.181  12.238  1.00  0.00    +0.016 A 
ATOM     20  C13 UNL     1       9.940  16.547  12.056  1.00  0.00    +0.015 A 
ATOM     21  C14 UNL     1      10.712  16.113  13.132  1.00  0.00    +0.001 A 
ATOM     22  C15 UNL     1      10.243  16.291  14.421  1.00  0.00    +0.000 A 
ATOM     23  C16 UNL     1       8.995  16.879  14.624  1.00  0.00    +0.005 A 
ATOM     24  C17 UNL     1       8.180  17.313  13.548  1.00  0.00    -0.031 A 
BRANCH  24  25
ATOM     25  C18 UNL     1       6.821  17.879  13.956  1.00  0.00    +0.014 C 
ATOM     26  C19 UNL     1       6.469  17.508  15.396  1.00  0.00    +0.012 C 
ATOM     27  C20 UNL     1       6.581  19.362  13.667  1.00  0.00    +0.012 C 
ENDBRANCH  24  25
ENDBRANCH  18  19
ENDBRANCH   4  18
TORSDOF 6
ENDMDL
MODEL 4
REMARK VINA RESULT:    -8.206      1.925      3.806
REMARK INTER + INTRA:         -11.570
REMARK INTER:                 -10.869
REMARK INTRA:                  -0.701
REMARK UNBOUND:                -0.726
REMARK  Name = 
REMARK  9 active torsions:
REMARK  status: ('A' for Active; 'I' for Inactive)
REMARK    1  A    between atoms: C1_1  and  O1_2
REMARK    2  A    between atoms: O1_2  and  C2_3
REMARK    3  A    between atoms: C7_8  and  C8_9
REMARK    4  A    between atoms: C10_11  and  O2_12
REMARK    5  A    between atoms: C11_13  and  S1_14
REMARK    6  A    between atoms: S1_14  and  C12_15
REMARK    7  A    between atoms: C17_20  and  C18_21
REMARK    8  A    between atoms: C18_21  and  C19_22
REMARK    9  A    between atoms: C18_21  and  C20_23
REMARK                            x       y       z     vdW  Elec       q    Type
REMARK                         _______ _______ _______ _____ _____    ______ ____
ROOT
ATOM      1  C8  UNL     1       8.120  17.293   9.661  1.00  0.00    +0.146 A 
ATOM      2  C9  UNL     1       9.392  17.652   9.459  1.00  0.00    +0.093 A 
ATOM      3  C10 UNL     1      10.327  16.687   8.950  1.00  0.00    +0.141 A 
ATOM      4  C11 UNL     1       9.951  15.422   8.682  1.00  0.00    +0.139 A 
ATOM      5  C21 UNL     1       8.506  15.052   8.817  1.00  0.00    +0.355 A 
ATOM      6  O3  UNL     1       8.062  13.955   8.489  1.00  0.00    -0.244 OA
ATOM      7  O4  UNL     1       7.663  16.001   9.334  1.00  0.00    -0.421 OA
ENDROOT
BRANCH   1  13
ATOM      8  C2  UNL     1       6.624  18.181  11.513  1.00  0.00    +0.131 A 
ATOM      9  C3  UNL     1       5.636  19.087  11.921  1.00  0.00    +0.046 A 
ATOM     10  C4  UNL     1       5.086  19.997  11.015  1.00  0.00    +0.004 A 
ATOM     11  C5  UNL     1       5.514  20.010   9.693  1.00  0.00    +0.001 A 
ATOM     12  C6  UNL     1       6.503  19.119   9.276  1.00  0.00    +0.015 A 
ATOM     13  C7  UNL     1       7.079  18.204  10.176  1.00  0.00    +0.059 A 
BRANCH   8  15
ATOM     14  C1  UNL     1       8.103  17.729  13.333  1.00  0.00    +0.277 C 
ATOM     15  O1  UNL     1       7.197  17.251  12.345  1.00  0.00    -0.494 OA
ENDBRANCH   8  15
ENDBRANCH   1  13
BRANCH   3  16
ATOM     16  O2  UNL     1      11.609  17.154   8.750  1.00  0.00    -0.505 OA
ATOM     17  H9  UNL     1      11.671  18.078   9.041  1.00  0.00    +0.292 HD
ENDBRANCH   3  16
BRANCH   4  18
ATOM     18  S1  UNL     1      11.006  14.187   8.053  1.00  0.00    -0.079 S 
BRANCH  18  19
ATOM     19  C12 UNL     1      11.254  14.740   6.365  1.00  0.00    +0.016 A 
ATOM     20  C13 UNL     1      10.118  15.315   5.757  1.00  0.00    +0.015 A 
ATOM     21  C14 UNL     1      10.143  15.799   4.450  1.00  0.00    +0.001 A 
ATOM     22  C15 UNL     1      11.309  15.702   3.713  1.00  0.00    +0.000 A 
ATOM     23  C16 UNL     1      12.433  15.101   4.278  1.00  0.00    +0.005 A 
ATOM     24  C17 UNL     1      12.430  14.584   5.599  1.00  0.00    -0.031 A 
BRANCH  24  25
ATOM     25  C18 UNL     1      13.730  13.908   6.029  1.00  0.00    +0.014 C 
ATOM     26  C19 UNL     1      14.409  14.669   7.167  1.00  0.00    +0.012 C 
ATOM     27  C20 UNL     1      13.665  12.404   6.300  1.00  0.00    +0.012 C 
ENDBRANCH  24  25
ENDBRANCH  18  19
ENDBRANCH   4  18
TORSDOF 6
ENDMDL
MODEL 5
REMARK VINA RESULT:    -8.198      2.769      8.060
REMARK INTER + INTRA:         -11.560
REMARK INTER:                 -10.766
REMARK INTRA:                  -0.793
REMARK UNBOUND:                -0.726
REMARK  Name = 
REMARK  9 active torsions:
REMARK  status: ('A' for Active; 'I' for Inactive)
REMARK    1  A    between atoms: C1_1  and  O1_2
REMARK    2  A    between atoms: O1_2  and  C2_3
REMARK    3  A    between atoms: C7_8  and  C8_9
REMARK    4  A    between atoms: C10_11  and  O2_12
REMARK    5  A    between atoms: C11_13  and  S1_14
REMARK    6  A    between atoms: S1_14  and  C12_15
REMARK    7  A    between atoms: C17_20  and  C18_21
REMARK    8  A    between atoms: C18_21  and  C19_22
REMARK    9  A    between atoms: C18_21  and  C20_23
REMARK                            x       y       z     vdW  Elec       q    Type
REMARK                         _______ _______ _______ _____ _____    ______ ____
ROOT
ATOM      1  C8  UNL     1      10.787  15.643   7.020  1.00  0.00    +0.146 A 
ATOM      2  C9  UNL     1      10.993  16.679   7.841  1.00  0.00    +0.093 A 
ATOM      3  C10 UNL     1      10.107  16.886   8.953  1.00  0.00    +0.141 A 
ATOM      4  C11 UNL     1       9.067  16.064   9.183  1.00  0.00    +0.139 A 
ATOM      5  C21 UNL     1       8.898  14.852   8.320  1.00  0.00    +0.355 A 
ATOM      6  O3  UNL     1       8.044  13.994   8.528  1.00  0.00    -0.244 OA
ATOM      7  O4  UNL     1       9.751  14.717   7.256  1.00  0.00    -0.421 OA
ENDROOT
BRANCH   1  13
ATOM      8  C2  UNL     1      11.350  15.796   4.548  1.00  0.00    +0.131 A 
ATOM      9  C3  UNL     1      12.214  15.464   3.496  1.00  0.00    +0.046 A 
ATOM     10  C4  UNL     1      13.340  14.669   3.722  1.00  0.00    +0.004 A 
ATOM     11  C5  UNL     1      13.615  14.197   5.000  1.00  0.00    +0.001 A 
ATOM     12  C6  UNL     1      12.768  14.527   6.057  1.00  0.00    +0.015 A 
ATOM     13  C7  UNL     1      11.636  15.336   5.853  1.00  0.00    +0.059 A 
BRANCH   8  15
ATOM     14  C1  UNL     1       9.187  16.038   3.566  1.00  0.00    +0.277 C 
ATOM     15  O1  UNL     1      10.219  16.559   4.395  1.00  0.00    -0.494 OA
ENDBRANCH   8  15
ENDBRANCH   1  13
BRANCH   3  16
ATOM     16  O2  UNL     1      10.412  17.964   9.759  1.00  0.00    -0.505 OA
ATOM     17  H9  UNL     1      10.891  18.634   9.243  1.00  0.00    +0.292 HD
ENDBRANCH   3  16
BRANCH   4  18
ATOM     18  S1  UNL     1       7.949  16.227  10.509  1.00  0.00    -0.079 S 
BRANCH  18  19
ATOM     19  C12 UNL     1       6.614  17.156   9.752  1.00  0.00    +0.016 A 
ATOM     20  C13 UNL     1       6.742  17.350   8.361  1.00  0.00    +0.015 A 
ATOM     21  C14 UNL     1       5.788  18.048   7.621  1.00  0.00    +0.001 A 
ATOM     22  C15 UNL     1       4.687  18.584   8.265  1.00  0.00    +0.000 A 
ATOM     23  C16 UNL     1       4.560  18.440   9.646  1.00  0.00    +0.005 A 
ATOM     24  C17 UNL     1       5.524  17.751  10.426  1.00  0.00    -0.031 A 
BRANCH  24  25
ATOM     25  C18 UNL     1       5.251  17.743  11.928  1.00  0.00    +0.014 C 
ATOM     26  C19 UNL     1       6.078  18.804  12.655  1.00  0.00    +0.012 C 
ATOM     27  C20 UNL     1       3.783  17.762  12.359  1.00  0.00    +0.012 C 
ENDBRANCH  24  25
ENDBRANCH  18  19
ENDBRANCH   4  18
TORSDOF 6
ENDMDL
MODEL 6
REMARK VINA RESULT:    -8.123      2.893      8.190
REMARK INTER + INTRA:         -11.461
REMARK INTER:                 -10.702
REMARK INTRA:                  -0.760
REMARK UNBOUND:                -0.726
REMARK  Name = 
REMARK  9 active torsions:
REMARK  status: ('A' for Active; 'I' for Inactive)
REMARK    1  A    between atoms: C1_1  and  O1_2
REMARK    2  A    between atoms: O1_2  and  C2_3
REMARK    3  A    between atoms: C7_8  and  C8_9
REMARK    4  A    between atoms: C10_11  and  O2_12
REMARK    5  A    between atoms: C11_13  and  S1_14
REMARK    6  A    between atoms: S1_14  and  C12_15
REMARK    7  A    between atoms: C17_20  and  C18_21
REMARK    8  A    between atoms: C18_21  and  C19_22
REMARK    9  A    between atoms: C18_21  and  C20_23
REMARK                            x       y       z     vdW  Elec       q    Type
REMARK                         _______ _______ _______ _____ _____    ______ ____
ROOT
ATOM      1  C8  UNL     1      10.776  15.627   6.734  1.00  0.00    +0.146 A 
ATOM      2  C9  UNL     1      11.004  16.719   7.473  1.00  0.00    +0.093 A 
ATOM      3  C10 UNL     1      10.172  16.986   8.613  1.00  0.00    +0.141 A 
ATOM      4  C11 UNL     1       9.159  16.166   8.949  1.00  0.00    +0.139 A 
ATOM      5  C21 UNL     1       8.970  14.896   8.177  1.00  0.00    +0.355 A 
ATOM      6  O3  UNL     1       8.142  14.042   8.485  1.00  0.00    -0.244 OA
ATOM      7  O4  UNL     1       9.771  14.704   7.082  1.00  0.00    -0.421 OA
ENDROOT
BRANCH   1  13
ATOM      8  C2  UNL     1      12.658  14.356   5.595  1.00  0.00    +0.131 A 
ATOM      9  C3  UNL     1      13.355  14.053   4.418  1.00  0.00    +0.046 A 
ATOM     10  C4  UNL     1      12.998  14.648   3.205  1.00  0.00    +0.004 A 
ATOM     11  C5  UNL     1      11.943  15.551   3.156  1.00  0.00    +0.001 A 
ATOM     12  C6  UNL     1      11.235  15.854   4.318  1.00  0.00    +0.015 A 
ATOM     13  C7  UNL     1      11.571  15.257   5.547  1.00  0.00    +0.059 A 
BRANCH   8  15
ATOM     14  C1  UNL     1      12.580  12.471   7.059  1.00  0.00    +0.277 C 
ATOM     15  O1  UNL     1      12.963  13.820   6.822  1.00  0.00    -0.494 OA
ENDBRANCH   8  15
ENDBRANCH   1  13
BRANCH   3  16
ATOM     16  O2  UNL     1      10.497  18.120   9.330  1.00  0.00    -0.505 OA
ATOM     17  H9  UNL     1      11.454  18.279   9.275  1.00  0.00    +0.292 HD
ENDBRANCH   3  16
BRANCH   4  18
ATOM     18  S1  UNL     1       8.106  16.399  10.317  1.00  0.00    -0.079 S 
BRANCH  18  19
ATOM     19  C12 UNL     1       6.706  17.231   9.565  1.00  0.00    +0.016 A 
ATOM     20  C13 UNL     1       6.805  17.416   8.170  1.00  0.00    +0.015 A 
ATOM     21  C14 UNL     1       5.801  18.041   7.434  1.00  0.00    +0.001 A 
ATOM     22  C15 UNL     1       4.674  18.512   8.084  1.00  0.00    +0.000 A 
ATOM     23  C16 UNL     1       4.572  18.377   9.468  1.00  0.00    +0.005 A 
ATOM     24  C17 UNL     1       5.587  17.762  10.245  1.00  0.00    -0.031 A 
BRANCH  24  25
ATOM     25  C18 UNL     1       5.330  17.755  11.750  1.00  0.00    +0.014 C 
ATOM     26  C19 UNL     1       6.114  18.860  12.458  1.00  0.00    +0.012 C 
ATOM     27  C20 UNL     1       3.868  17.709  12.197  1.00  0.00    +0.012 C 
ENDBRANCH  24  25
ENDBRANCH  18  19
ENDBRANCH   4  18
TORSDOF 6
ENDMDL
MODEL 7
REMARK VINA RESULT:    -8.078      2.450      3.706
REMARK INTER + INTRA:         -11.401
REMARK INTER:                 -10.729
REMARK INTRA:                  -0.671
REMARK UNBOUND:                -0.726
REMARK  Name = 
REMARK  9 active torsions:
REMARK  status: ('A' for Active; 'I' for Inactive)
REMARK    1  A    between atoms: C1_1  and  O1_2
REMARK    2  A    between atoms: O1_2  and  C2_3
REMARK    3  A    between atoms: C7_8  and  C8_9
REMARK    4  A    between atoms: C10_11  and  O2_12
REMARK    5  A    between atoms: C11_13  and  S1_14
REMARK    6  A    between atoms: S1_14  and  C12_15
REMARK    7  A    between atoms: C17_20  and  C18_21
REMARK    8  A    between atoms: C18_21  and  C19_22
REMARK    9  A    between atoms: C18_21  and  C20_23
REMARK                            x       y       z     vdW  Elec       q    Type
REMARK                         _______ _______ _______ _____ _____    ______ ____
ROOT
ATOM      1  C8  UNL     1       7.977  17.220  10.131  1.00  0.00    +0.146 A 
ATOM      2  C9  UNL     1       8.847  18.173   9.779  1.00  0.00    +0.093 A 
ATOM      3  C10 UNL     1      10.097  17.801   9.176  1.00  0.00    +0.141 A 
ATOM      4  C11 UNL     1      10.417  16.510   8.967  1.00  0.00    +0.139 A 
ATOM      5  C21 UNL     1       9.401  15.454   9.274  1.00  0.00    +0.355 A 
ATOM      6  O3  UNL     1       9.569  14.265   9.012  1.00  0.00    -0.244 OA
ATOM      7  O4  UNL     1       8.238  15.860   9.874  1.00  0.00    -0.421 OA
ENDROOT
BRANCH   1  13
ATOM      8  C2  UNL     1       5.448  17.444  10.039  1.00  0.00    +0.131 A 
ATOM      9  C3  UNL     1       4.246  17.709  10.710  1.00  0.00    +0.046 A 
ATOM     10  C4  UNL     1       4.244  18.037  12.067  1.00  0.00    +0.004 A 
ATOM     11  C5  UNL     1       5.442  18.105  12.770  1.00  0.00    +0.001 A 
ATOM     12  C6  UNL     1       6.644  17.835  12.117  1.00  0.00    +0.015 A 
ATOM     13  C7  UNL     1       6.666  17.491  10.753  1.00  0.00    +0.059 A 
BRANCH   8  15
ATOM     14  C1  UNL     1       5.040  18.095   7.779  1.00  0.00    +0.277 C 
ATOM     15  O1  UNL     1       5.524  17.131   8.705  1.00  0.00    -0.494 OA
ENDBRANCH   8  15
ENDBRANCH   1  13
BRANCH   3  16
ATOM     16  O2  UNL     1      10.919  18.851   8.822  1.00  0.00    -0.505 OA
ATOM     17  H9  UNL     1      11.259  19.285   9.622  1.00  0.00    +0.292 HD
ENDBRANCH   3  16
BRANCH   4  18
ATOM     18  S1  UNL     1      11.899  15.963   8.234  1.00  0.00    -0.079 S 
BRANCH  18  19
ATOM     19  C12 UNL     1      11.406  15.748   6.523  1.00  0.00    +0.016 A 
ATOM     20  C13 UNL     1      10.380  16.615   6.089  1.00  0.00    +0.015 A 
ATOM     21  C14 UNL     1       9.885  16.580   4.787  1.00  0.00    +0.001 A 
ATOM     22  C15 UNL     1      10.397  15.660   3.889  1.00  0.00    +0.000 A 
ATOM     23  C16 UNL     1      11.382  14.767   4.306  1.00  0.00    +0.005 A 
ATOM     24  C17 UNL     1      11.892  14.768   5.630  1.00  0.00    -0.031 A 
BRANCH  24  25
ATOM     25  C18 UNL     1      12.923  13.680   5.924  1.00  0.00    +0.014 C 
ATOM     26  C19 UNL     1      14.302  14.276   6.209  1.00  0.00    +0.012 C 
ATOM     27  C20 UNL     1      12.529  12.621   6.954  1.00  0.00    +0.012 C 
ENDBRANCH  24  25
ENDBRANCH  18  19
ENDBRANCH   4  18
TORSDOF 6
ENDMDL
MODEL 8
REMARK VINA RESULT:    -7.608      1.931      7.923
REMARK INTER + INTRA:         -10.780
REMARK INTER:                 -10.244
REMARK INTRA:                  -0.536
REMARK UNBOUND:                -0.726
REMARK  Name = 
REMARK  9 active torsions:
REMARK  status: ('A' for Active; 'I' for Inactive)
REMARK    1  A    between atoms: C1_1  and  O1_2
REMARK    2  A    between atoms: O1_2  and  C2_3
REMARK    3  A    between atoms: C7_8  and  C8_9
REMARK    4  A    between atoms: C10_11  and  O2_12
REMARK    5  A    between atoms: C11_13  and  S1_14
REMARK    6  A    between atoms: S1_14  and  C12_15
REMARK    7  A    between atoms: C17_20  and  C18_21
REMARK    8  A    between atoms: C18_21  and  C19_22
REMARK    9  A    between atoms: C18_21  and  C20_23
REMARK                            x       y       z     vdW  Elec       q    Type
REMARK                         _______ _______ _______ _____ _____    ______ ____
ROOT
ATOM      1  C8  UNL     1      11.068  14.945   7.495  1.00  0.00    +0.146 A 
ATOM      2  C9  UNL     1       9.900  14.519   7.988  1.00  0.00    +0.093 A 
ATOM      3  C10 UNL     1       9.075  15.427   8.736  1.00  0.00    +0.141 A 
ATOM      4  C11 UNL     1       9.459  16.697   8.961  1.00  0.00    +0.139 A 
ATOM      5  C21 UNL     1      10.720  17.196   8.326  1.00  0.00    +0.355 A 
ATOM      6  O3  UNL     1      11.085  18.368   8.389  1.00  0.00    -0.244 OA
ATOM      7  O4  UNL     1      11.483  16.282   7.648  1.00  0.00    -0.421 OA
ENDROOT
BRANCH   1  13
ATOM      8  C2  UNL     1      12.365  14.391   5.382  1.00  0.00    +0.131 A 
ATOM      9  C3  UNL     1      13.250  13.536   4.712  1.00  0.00    +0.046 A 
ATOM     10  C4  UNL     1      13.745  12.390   5.338  1.00  0.00    +0.004 A 
ATOM     11  C5  UNL     1      13.362  12.085   6.639  1.00  0.00    +0.001 A 
ATOM     12  C6  UNL     1      12.488  12.932   7.320  1.00  0.00    +0.015 A 
ATOM     13  C7  UNL     1      11.988  14.098   6.711  1.00  0.00    +0.059 A 
BRANCH   8  15
ATOM     14  C1  UNL     1      10.851  15.350   3.803  1.00  0.00    +0.277 C 
ATOM     15  O1  UNL     1      11.829  15.524   4.822  1.00  0.00    -0.494 OA
ENDBRANCH   8  15
ENDBRANCH   1  13
BRANCH   3  16
ATOM     16  O2  UNL     1       7.878  14.908   9.183  1.00  0.00    -0.505 OA
ATOM     17  H9  UNL     1       7.142  15.454   8.859  1.00  0.00    +0.292 HD
ENDBRANCH   3  16
BRANCH   4  18
ATOM     18  S1  UNL     1       8.525  17.873   9.844  1.00  0.00    -0.079 S 
BRANCH  18  19
ATOM     19  C12 UNL     1       8.865  17.413  11.544  1.00  0.00    +0.016 A 
ATOM     20  C13 UNL     1      10.078  16.719  11.738  1.00  0.00    +0.015 A 
ATOM     21  C14 UNL     1      10.493  16.293  12.999  1.00  0.00    +0.001 A 
ATOM     22  C15 UNL     1       9.690  16.541  14.097  1.00  0.00    +0.000 A 
ATOM     23  C16 UNL     1       8.468  17.189  13.925  1.00  0.00    +0.005 A 
ATOM     24  C17 UNL     1       8.013  17.617  12.651  1.00  0.00    -0.031 A 
BRANCH  24  25
ATOM     25  C18 UNL     1       6.626  18.256  12.645  1.00  0.00    +0.014 C 
ATOM     26  C19 UNL     1       5.649  17.468  11.772  1.00  0.00    +0.012 C 
ATOM     27  C20 UNL     1       6.026  18.608  14.007  1.00  0.00    +0.012 C 
ENDBRANCH  24  25
ENDBRANCH  18  19
ENDBRANCH   4  18
TORSDOF 6
ENDMDL
MODEL 9
REMARK VINA RESULT:    -7.483      2.303      4.178
REMARK INTER + INTRA:         -10.615
REMARK INTER:                 -10.399
REMARK INTRA:                  -0.216
REMARK UNBOUND:                -0.726
REMARK  Name = 
REMARK  9 active torsions:
REMARK  status: ('A' for Active; 'I' for Inactive)
REMARK    1  A    between atoms: C1_1  and  O1_2
REMARK    2  A    between atoms: O1_2  and  C2_3
REMARK    3  A    between atoms: C7_8  and  C8_9
REMARK    4  A    between atoms: C10_11  and  O2_12
REMARK    5  A    between atoms: C11_13  and  S1_14
REMARK    6  A    between atoms: S1_14  and  C12_15
REMARK    7  A    between atoms: C17_20  and  C18_21
REMARK    8  A    between atoms: C18_21  and  C19_22
REMARK    9  A    between atoms: C18_21  and  C20_23
REMARK                            x       y       z     vdW  Elec       q    Type
REMARK                         _______ _______ _______ _____ _____    ______ ____
ROOT
ATOM      1  C8  UNL     1       8.041  17.642   8.678  1.00  0.00    +0.146 A 
ATOM      2  C9  UNL     1       7.759  16.550   7.959  1.00  0.00    +0.093 A 
ATOM      3  C10 UNL     1       8.780  15.964   7.134  1.00  0.00    +0.141 A 
ATOM      4  C11 UNL     1      10.013  16.499   7.060  1.00  0.00    +0.139 A 
ATOM      5  C21 UNL     1      10.351  17.662   7.940  1.00  0.00    +0.355 A 
ATOM      6  O3  UNL     1      11.481  18.139   8.016  1.00  0.00    -0.244 OA
ATOM      7  O4  UNL     1       9.334  18.200   8.685  1.00  0.00    -0.421 OA
ENDROOT
BRANCH   1  13
ATOM      8  C2  UNL     1       6.841  17.933  10.898  1.00  0.00    +0.131 A 
ATOM      9  C3  UNL     1       5.905  18.637  11.668  1.00  0.00    +0.046 A 
ATOM     10  C4  UNL     1       5.185  19.701  11.118  1.00  0.00    +0.004 A 
ATOM     11  C5  UNL     1       5.392  20.072   9.795  1.00  0.00    +0.001 A 
ATOM     12  C6  UNL     1       6.327  19.386   9.020  1.00  0.00    +0.015 A 
ATOM     13  C7  UNL     1       7.070  18.320   9.559  1.00  0.00    +0.059 A 
BRANCH   8  15
ATOM     14  C1  UNL     1       8.433  17.109  12.476  1.00  0.00    +0.277 C 
ATOM     15  O1  UNL     1       7.571  16.870  11.369  1.00  0.00    -0.494 OA
ENDBRANCH   8  15
ENDBRANCH   1  13
BRANCH   3  16
ATOM     16  O2  UNL     1       8.406  14.826   6.449  1.00  0.00    -0.505 OA
ATOM     17  H9  UNL     1       7.449  14.844   6.282  1.00  0.00    +0.292 HD
ENDBRANCH   3  16
BRANCH   4  18
ATOM     18  S1  UNL     1      11.316  15.855   6.100  1.00  0.00    -0.079 S 
BRANCH  18  19
ATOM     19  C12 UNL     1      11.921  14.527   7.144  1.00  0.00    +0.016 A 
ATOM     20  C13 UNL     1      11.375  14.501   8.445  1.00  0.00    +0.015 A 
ATOM     21  C14 UNL     1      11.737  13.531   9.378  1.00  0.00    +0.001 A 
ATOM     22  C15 UNL     1      12.669  12.570   9.033  1.00  0.00    +0.000 A 
ATOM     23  C16 UNL     1      13.251  12.600   7.767  1.00  0.00    +0.005 A 
ATOM     24  C17 UNL     1      12.917  13.585   6.803  1.00  0.00    -0.031 A 
BRANCH  24  25
ATOM     25  C18 UNL     1      13.697  13.498   5.494  1.00  0.00    +0.014 C 
ATOM     26  C19 UNL     1      14.411  12.154   5.355  1.00  0.00    +0.012 C 
ATOM     27  C20 UNL     1      12.945  13.885   4.219  1.00  0.00    +0.012 C 
ENDBRANCH  24  25
ENDBRANCH  18  19
ENDBRANCH   4  18
TORSDOF 6
ENDMDL
